  18  18   1   0
  0.4124378E+02  0.5643844E-09  0.5643844E-09  0.2691227E-08  0.5000000E-15
  1.000000000000000E-004
  CAR 
 unknown system                          
      7.92156964    -24.38803498  301     -0.17838342      1.00000000
    -24.388  0.0000E+00  0.0000E+00
    -24.280  0.0000E+00  0.0000E+00
    -24.173  0.0000E+00  0.0000E+00
    -24.065 -0.1191E-28 -0.1282E-29
    -23.957 -0.6998E-25 -0.7539E-26
    -23.850 -0.2292E-21 -0.2470E-22
    -23.742 -0.4181E-18 -0.4505E-19
    -23.634 -0.4242E-15 -0.4573E-16
    -23.526 -0.2319E-12 -0.2502E-13
    -23.419 -0.7198E-10 -0.7777E-11
    -23.311 -0.1233E-07 -0.1336E-08
    -23.203 -0.1160E-05 -0.1262E-06
    -23.096 -0.5937E-04 -0.6520E-05
    -22.988 -0.1630E-02 -0.1821E-03
    -22.880 -0.2330E-01 -0.2691E-02
    -22.773 -0.1613E+00 -0.2006E-01
    -22.665 -0.4110E+00 -0.6433E-01
    -22.557  0.5623E+00 -0.3770E-02
    -22.449  0.4670E+01  0.4992E+00
    -22.342  0.8109E+01  0.1372E+01
    -22.234  0.5465E+01  0.1961E+01
    -22.126  0.1005E+01  0.2069E+01
    -22.019 -0.4035E+00  0.2026E+01
    -21.911 -0.2030E+00  0.2004E+01
    -21.803 -0.3338E-01  0.2000E+01
    -21.696 -0.2604E-02  0.2000E+01
    -21.588 -0.1050E-03  0.2000E+01
    -21.480 -0.2261E-05  0.2000E+01
    -21.372 -0.2647E-07  0.2000E+01
    -21.265 -0.1699E-09  0.2000E+01
    -21.157 -0.6017E-12  0.2000E+01
    -21.049  0.0000E+00  0.2000E+01
    -20.942  0.0000E+00  0.2000E+01
    -20.834  0.0000E+00  0.2000E+01
    -20.726  0.0000E+00  0.2000E+01
    -20.619  0.0000E+00  0.2000E+01
    -20.511  0.0000E+00  0.2000E+01
    -20.403  0.0000E+00  0.2000E+01
    -20.295  0.0000E+00  0.2000E+01
    -20.188  0.0000E+00  0.2000E+01
    -20.080  0.0000E+00  0.2000E+01
    -19.972  0.0000E+00  0.2000E+01
    -19.865  0.0000E+00  0.2000E+01
    -19.757  0.0000E+00  0.2000E+01
    -19.649  0.0000E+00  0.2000E+01
    -19.542  0.0000E+00  0.2000E+01
    -19.434  0.0000E+00  0.2000E+01
    -19.326  0.0000E+00  0.2000E+01
    -19.218  0.0000E+00  0.2000E+01
    -19.111  0.0000E+00  0.2000E+01
    -19.003  0.0000E+00  0.2000E+01
    -18.895  0.0000E+00  0.2000E+01
    -18.788  0.0000E+00  0.2000E+01
    -18.680  0.0000E+00  0.2000E+01
    -18.572  0.0000E+00  0.2000E+01
    -18.465  0.0000E+00  0.2000E+01
    -18.357  0.0000E+00  0.2000E+01
    -18.249  0.0000E+00  0.2000E+01
    -18.142  0.0000E+00  0.2000E+01
    -18.034  0.0000E+00  0.2000E+01
    -17.926  0.0000E+00  0.2000E+01
    -17.818  0.0000E+00  0.2000E+01
    -17.711  0.0000E+00  0.2000E+01
    -17.603  0.0000E+00  0.2000E+01
    -17.495  0.0000E+00  0.2000E+01
    -17.388  0.0000E+00  0.2000E+01
    -17.280  0.0000E+00  0.2000E+01
    -17.172  0.0000E+00  0.2000E+01
    -17.065  0.0000E+00  0.2000E+01
    -16.957  0.0000E+00  0.2000E+01
    -16.849  0.0000E+00  0.2000E+01
    -16.741  0.0000E+00  0.2000E+01
    -16.634  0.0000E+00  0.2000E+01
    -16.526  0.0000E+00  0.2000E+01
    -16.418  0.0000E+00  0.2000E+01
    -16.311  0.0000E+00  0.2000E+01
    -16.203  0.0000E+00  0.2000E+01
    -16.095  0.0000E+00  0.2000E+01
    -15.988  0.0000E+00  0.2000E+01
    -15.880  0.0000E+00  0.2000E+01
    -15.772  0.0000E+00  0.2000E+01
    -15.664  0.0000E+00  0.2000E+01
    -15.557  0.0000E+00  0.2000E+01
    -15.449  0.0000E+00  0.2000E+01
    -15.341  0.0000E+00  0.2000E+01
    -15.234  0.0000E+00  0.2000E+01
    -15.126  0.0000E+00  0.2000E+01
    -15.018  0.0000E+00  0.2000E+01
    -14.911  0.0000E+00  0.2000E+01
    -14.803  0.0000E+00  0.2000E+01
    -14.695  0.0000E+00  0.2000E+01
    -14.587  0.0000E+00  0.2000E+01
    -14.480  0.0000E+00  0.2000E+01
    -14.372  0.0000E+00  0.2000E+01
    -14.264  0.0000E+00  0.2000E+01
    -14.157  0.0000E+00  0.2000E+01
    -14.049  0.0000E+00  0.2000E+01
    -13.941  0.0000E+00  0.2000E+01
    -13.834  0.0000E+00  0.2000E+01
    -13.726  0.0000E+00  0.2000E+01
    -13.618  0.0000E+00  0.2000E+01
    -13.510  0.0000E+00  0.2000E+01
    -13.403  0.0000E+00  0.2000E+01
    -13.295  0.0000E+00  0.2000E+01
    -13.187  0.0000E+00  0.2000E+01
    -13.080  0.0000E+00  0.2000E+01
    -12.972  0.0000E+00  0.2000E+01
    -12.864  0.0000E+00  0.2000E+01
    -12.757  0.0000E+00  0.2000E+01
    -12.649  0.0000E+00  0.2000E+01
    -12.541  0.0000E+00  0.2000E+01
    -12.433 -0.2187E-27  0.2000E+01
    -12.326 -0.8552E-24  0.2000E+01
    -12.218 -0.1864E-20  0.2000E+01
    -12.110 -0.2264E-17  0.2000E+01
    -12.003 -0.1490E-14  0.2000E+01
    -11.895 -0.5573E-12  0.2000E+01
    -11.787 -0.1161E-09  0.2000E+01
    -11.680 -0.1347E-07  0.2000E+01
    -11.572 -0.8710E-06  0.2000E+01
    -11.464 -0.3146E-04  0.2000E+01
    -11.356 -0.6352E-03  0.2000E+01
    -11.249 -0.7113E-02  0.1999E+01
    -11.141 -0.4256E-01  0.1995E+01
    -11.033 -0.1165E+00  0.1982E+01
    -10.926 -0.9598E-03  0.1982E+01
    -10.818  0.8840E+00  0.2077E+01
    -10.710  0.2881E+01  0.2387E+01
    -10.603  0.5359E+01  0.2965E+01
    -10.495  0.6006E+01  0.3611E+01
    -10.387  0.3437E+01  0.3981E+01
    -10.280  0.5906E+00  0.4045E+01
    -10.172 -0.2573E+00  0.4017E+01
    -10.064 -0.1350E+00  0.4003E+01
     -9.956 -0.2423E-01  0.4000E+01
     -9.849 -0.2119E-02  0.4000E+01
     -9.741 -0.1197E-03  0.4000E+01
     -9.633 -0.3999E-03  0.4000E+01
     -9.526 -0.3599E-02  0.4000E+01
     -9.418 -0.1408E-01  0.3998E+01
     -9.310 -0.6407E-02  0.3997E+01
     -9.203  0.9231E-01  0.4007E+01
     -9.095  0.2100E+00  0.4030E+01
     -8.987  0.2906E+00  0.4061E+01
     -8.879  0.9031E+00  0.4158E+01
     -8.772  0.1842E+01  0.4357E+01
     -8.664  0.1571E+01  0.4526E+01
     -8.556  0.4009E+00  0.4569E+01
     -8.449 -0.1670E+00  0.4551E+01
     -8.341  0.2417E+00  0.4577E+01
     -8.233  0.1344E+01  0.4722E+01
     -8.126  0.1984E+01  0.4936E+01
     -8.018  0.1959E+01  0.5147E+01
     -7.910  0.2044E+01  0.5367E+01
     -7.802  0.1499E+01  0.5528E+01
     -7.695  0.6585E+00  0.5599E+01
     -7.587  0.9445E+00  0.5701E+01
     -7.479  0.1685E+01  0.5883E+01
     -7.372  0.1998E+01  0.6098E+01
     -7.264  0.3268E+01  0.6450E+01
     -7.156  0.5181E+01  0.7008E+01
     -7.049  0.5771E+01  0.7629E+01
     -6.941  0.5281E+01  0.8198E+01
     -6.833  0.5510E+01  0.8791E+01
     -6.725  0.8358E+01  0.9692E+01
     -6.618  0.1309E+02  0.1110E+02
     -6.510  0.1608E+02  0.1283E+02
     -6.402  0.1718E+02  0.1468E+02
     -6.295  0.1686E+02  0.1650E+02
     -6.187  0.1555E+02  0.1817E+02
     -6.079  0.1501E+02  0.1979E+02
     -5.972  0.1429E+02  0.2133E+02
     -5.864  0.1314E+02  0.2274E+02
     -5.756  0.1596E+02  0.2446E+02
     -5.648  0.2266E+02  0.2690E+02
     -5.541  0.2387E+02  0.2947E+02
     -5.433  0.2074E+02  0.3171E+02
     -5.325  0.2205E+02  0.3408E+02
     -5.218  0.2422E+02  0.3669E+02
     -5.110  0.2172E+02  0.3903E+02
     -5.002  0.1891E+02  0.4107E+02
     -4.895  0.1792E+02  0.4300E+02
     -4.787  0.1705E+02  0.4484E+02
     -4.679  0.1889E+02  0.4687E+02
     -4.571  0.2124E+02  0.4916E+02
     -4.464  0.2227E+02  0.5156E+02
     -4.356  0.2457E+02  0.5420E+02
     -4.248  0.2477E+02  0.5687E+02
     -4.141  0.2080E+02  0.5911E+02
     -4.033  0.1771E+02  0.6102E+02
     -3.925  0.1872E+02  0.6303E+02
     -3.818  0.2339E+02  0.6555E+02
     -3.710  0.3012E+02  0.6879E+02
     -3.602  0.3449E+02  0.7251E+02
     -3.494  0.3322E+02  0.7609E+02
     -3.387  0.3087E+02  0.7941E+02
     -3.279  0.3331E+02  0.8300E+02
     -3.171  0.3562E+02  0.8684E+02
     -3.064  0.3420E+02  0.9052E+02
     -2.956  0.3534E+02  0.9432E+02
     -2.848  0.3794E+02  0.9841E+02
     -2.741  0.3313E+02  0.1020E+03
     -2.633  0.2528E+02  0.1047E+03
     -2.525  0.2148E+02  0.1070E+03
     -2.418  0.2112E+02  0.1093E+03
     -2.310  0.2517E+02  0.1120E+03
     -2.202  0.3103E+02  0.1153E+03
     -2.094  0.3139E+02  0.1187E+03
     -1.987  0.2381E+02  0.1213E+03
     -1.879  0.1700E+02  0.1231E+03
     -1.771  0.1686E+02  0.1249E+03
     -1.664  0.2082E+02  0.1272E+03
     -1.556  0.2720E+02  0.1301E+03
     -1.448  0.3299E+02  0.1337E+03
     -1.341  0.3586E+02  0.1375E+03
     -1.233  0.3632E+02  0.1414E+03
     -1.125  0.3252E+02  0.1449E+03
     -1.017  0.2413E+02  0.1475E+03
     -0.910  0.1787E+02  0.1495E+03
     -0.802  0.1754E+02  0.1513E+03
     -0.694  0.2070E+02  0.1536E+03
     -0.587  0.2744E+02  0.1565E+03
     -0.479  0.3424E+02  0.1602E+03
     -0.371  0.3442E+02  0.1639E+03
     -0.264  0.3195E+02  0.1674E+03
     -0.156  0.3070E+02  0.1707E+03
     -0.048  0.2741E+02  0.1736E+03
      0.060  0.2431E+02  0.1762E+03
      0.167  0.2186E+02  0.1786E+03
      0.275  0.1682E+02  0.1804E+03
      0.383  0.8427E+01  0.1813E+03
      0.490  0.1403E+01  0.1815E+03
      0.598 -0.4250E+00  0.1814E+03
      0.706  0.8441E+00  0.1815E+03
      0.813  0.2919E+01  0.1818E+03
      0.921  0.5289E+01  0.1824E+03
      1.029  0.7370E+01  0.1832E+03
      1.137  0.7620E+01  0.1840E+03
      1.244  0.5987E+01  0.1847E+03
      1.352  0.4319E+01  0.1851E+03
      1.460  0.3276E+01  0.1855E+03
      1.567  0.4557E+01  0.1860E+03
      1.675  0.7064E+01  0.1867E+03
      1.783  0.7525E+01  0.1875E+03
      1.890  0.8301E+01  0.1884E+03
      1.998  0.8441E+01  0.1893E+03
      2.106  0.4890E+01  0.1899E+03
      2.214  0.1809E+01  0.1901E+03
      2.321  0.3447E+01  0.1904E+03
      2.429  0.6715E+01  0.1912E+03
      2.537  0.6273E+01  0.1918E+03
      2.644  0.4001E+01  0.1923E+03
      2.752  0.5206E+01  0.1928E+03
      2.860  0.8018E+01  0.1937E+03
      2.967  0.7661E+01  0.1945E+03
      3.075  0.5615E+01  0.1951E+03
      3.183  0.4616E+01  0.1956E+03
      3.291  0.4447E+01  0.1961E+03
      3.398  0.4556E+01  0.1966E+03
      3.506  0.5150E+01  0.1971E+03
      3.614  0.6917E+01  0.1979E+03
      3.721  0.7758E+01  0.1987E+03
      3.829  0.6433E+01  0.1994E+03
      3.937  0.5536E+01  0.2000E+03
      4.044  0.4604E+01  0.2005E+03
      4.152  0.3159E+01  0.2008E+03
      4.260  0.3668E+01  0.2012E+03
      4.368  0.4738E+01  0.2017E+03
      4.475  0.4626E+01  0.2022E+03
      4.583  0.5247E+01  0.2028E+03
      4.691  0.6063E+01  0.2035E+03
      4.798  0.4751E+01  0.2040E+03
      4.906  0.2957E+01  0.2043E+03
      5.014  0.3043E+01  0.2046E+03
      5.121  0.3249E+01  0.2050E+03
      5.229  0.3620E+01  0.2054E+03
      5.337  0.6042E+01  0.2060E+03
      5.444  0.7597E+01  0.2068E+03
      5.552  0.5234E+01  0.2074E+03
      5.660  0.1478E+01  0.2076E+03
      5.768  0.8396E-01  0.2076E+03
      5.875  0.1073E+01  0.2077E+03
      5.983  0.1887E+01  0.2079E+03
      6.091  0.1125E+01  0.2080E+03
      6.198  0.1399E+00  0.2080E+03
      6.306 -0.9875E-01  0.2080E+03
      6.414 -0.3924E-01  0.2080E+03
      6.521 -0.5710E-02  0.2080E+03
      6.629 -0.4019E-03  0.2080E+03
      6.737 -0.1472E-04  0.2080E+03
      6.845 -0.2892E-06  0.2080E+03
      6.952 -0.3092E-08  0.2080E+03
      7.060 -0.1814E-10  0.2080E+03
      7.168 -0.5839E-13  0.2080E+03
      7.275  0.0000E+00  0.2080E+03
      7.383  0.0000E+00  0.2080E+03
      7.491  0.0000E+00  0.2080E+03
      7.598  0.0000E+00  0.2080E+03
      7.706  0.0000E+00  0.2080E+03
      7.814  0.0000E+00  0.2080E+03
      7.922  0.0000E+00  0.2080E+03
      7.92156964    -24.38803498  301     -0.17838342      1.00000000
    -24.388  0.0000E+00  0.0000E+00  0.0000E+00
    -24.280  0.0000E+00  0.0000E+00  0.0000E+00
    -24.173  0.0000E+00  0.0000E+00  0.0000E+00
    -24.065 -0.6554E-40 -0.3179E-39 -0.8064E-38
    -23.957 -0.3850E-36 -0.1868E-35 -0.4735E-34
    -23.850 -0.1260E-32 -0.6115E-32 -0.1549E-30
    -23.742 -0.2298E-29 -0.1115E-28 -0.2823E-27
    -23.634 -0.2330E-26 -0.1131E-25 -0.2861E-24
    -23.526 -0.1273E-23 -0.6180E-23 -0.1563E-21
    -23.419 -0.3950E-21 -0.1917E-20 -0.4845E-19
    -23.311 -0.6764E-19 -0.3284E-18 -0.8292E-17
    -23.203 -0.6358E-17 -0.3087E-16 -0.7790E-15
    -23.096 -0.3253E-15 -0.1580E-14 -0.3984E-13
    -22.988 -0.8927E-14 -0.4335E-13 -0.1093E-11
    -22.880 -0.1275E-12 -0.6194E-12 -0.1560E-10
    -22.773 -0.8822E-12 -0.4286E-11 -0.1078E-09
    -22.665 -0.2246E-11 -0.1091E-10 -0.2741E-09
    -22.557  0.3083E-11  0.1497E-10  0.3778E-09
    -22.449  0.2554E-10  0.1241E-09  0.3120E-08
    -22.342  0.4430E-10  0.2153E-09  0.5408E-08
    -22.234  0.2983E-10  0.1450E-09  0.3638E-08
    -22.126  0.5475E-11  0.2662E-10  0.6664E-09
    -22.019 -0.2205E-11 -0.1071E-10 -0.2692E-09
    -21.911 -0.1108E-11 -0.5385E-11 -0.1350E-09
    -21.803 -0.1821E-12 -0.8850E-12 -0.2217E-10
    -21.696 -0.1419E-13 -0.6900E-13 -0.1728E-11
    -21.588 -0.5718E-15 -0.2780E-14 -0.6956E-13
    -21.480 -0.1231E-16 -0.5988E-16 -0.1497E-14
    -21.372 -0.1441E-18 -0.7007E-18 -0.1751E-16
    -21.265 -0.9244E-21 -0.4496E-20 -0.1123E-18
    -21.157 -0.3272E-23 -0.1592E-22 -0.3972E-21
    -21.049  0.0000E+00  0.0000E+00  0.0000E+00
    -20.942  0.0000E+00  0.0000E+00  0.0000E+00
    -20.834  0.0000E+00  0.0000E+00  0.0000E+00
    -20.726  0.0000E+00  0.0000E+00  0.0000E+00
    -20.619  0.0000E+00  0.0000E+00  0.0000E+00
    -20.511  0.0000E+00  0.0000E+00  0.0000E+00
    -20.403  0.0000E+00  0.0000E+00  0.0000E+00
    -20.295  0.0000E+00  0.0000E+00  0.0000E+00
    -20.188  0.0000E+00  0.0000E+00  0.0000E+00
    -20.080  0.0000E+00  0.0000E+00  0.0000E+00
    -19.972  0.0000E+00  0.0000E+00  0.0000E+00
    -19.865  0.0000E+00  0.0000E+00  0.0000E+00
    -19.757  0.0000E+00  0.0000E+00  0.0000E+00
    -19.649  0.0000E+00  0.0000E+00  0.0000E+00
    -19.542  0.0000E+00  0.0000E+00  0.0000E+00
    -19.434  0.0000E+00  0.0000E+00  0.0000E+00
    -19.326  0.0000E+00  0.0000E+00  0.0000E+00
    -19.218  0.0000E+00  0.0000E+00  0.0000E+00
    -19.111  0.0000E+00  0.0000E+00  0.0000E+00
    -19.003  0.0000E+00  0.0000E+00  0.0000E+00
    -18.895  0.0000E+00  0.0000E+00  0.0000E+00
    -18.788  0.0000E+00  0.0000E+00  0.0000E+00
    -18.680  0.0000E+00  0.0000E+00  0.0000E+00
    -18.572  0.0000E+00  0.0000E+00  0.0000E+00
    -18.465  0.0000E+00  0.0000E+00  0.0000E+00
    -18.357  0.0000E+00  0.0000E+00  0.0000E+00
    -18.249  0.0000E+00  0.0000E+00  0.0000E+00
    -18.142  0.0000E+00  0.0000E+00  0.0000E+00
    -18.034  0.0000E+00  0.0000E+00  0.0000E+00
    -17.926  0.0000E+00  0.0000E+00  0.0000E+00
    -17.818  0.0000E+00  0.0000E+00  0.0000E+00
    -17.711  0.0000E+00  0.0000E+00  0.0000E+00
    -17.603  0.0000E+00  0.0000E+00  0.0000E+00
    -17.495  0.0000E+00  0.0000E+00  0.0000E+00
    -17.388  0.0000E+00  0.0000E+00  0.0000E+00
    -17.280  0.0000E+00  0.0000E+00  0.0000E+00
    -17.172  0.0000E+00  0.0000E+00  0.0000E+00
    -17.065  0.0000E+00  0.0000E+00  0.0000E+00
    -16.957  0.0000E+00  0.0000E+00  0.0000E+00
    -16.849  0.0000E+00  0.0000E+00  0.0000E+00
    -16.741  0.0000E+00  0.0000E+00  0.0000E+00
    -16.634  0.0000E+00  0.0000E+00  0.0000E+00
    -16.526  0.0000E+00  0.0000E+00  0.0000E+00
    -16.418  0.0000E+00  0.0000E+00  0.0000E+00
    -16.311  0.0000E+00  0.0000E+00  0.0000E+00
    -16.203  0.0000E+00  0.0000E+00  0.0000E+00
    -16.095  0.0000E+00  0.0000E+00  0.0000E+00
    -15.988  0.0000E+00  0.0000E+00  0.0000E+00
    -15.880  0.0000E+00  0.0000E+00  0.0000E+00
    -15.772  0.0000E+00  0.0000E+00  0.0000E+00
    -15.664  0.0000E+00  0.0000E+00  0.0000E+00
    -15.557  0.0000E+00  0.0000E+00  0.0000E+00
    -15.449  0.0000E+00  0.0000E+00  0.0000E+00
    -15.341  0.0000E+00  0.0000E+00  0.0000E+00
    -15.234  0.0000E+00  0.0000E+00  0.0000E+00
    -15.126  0.0000E+00  0.0000E+00  0.0000E+00
    -15.018  0.0000E+00  0.0000E+00  0.0000E+00
    -14.911  0.0000E+00  0.0000E+00  0.0000E+00
    -14.803  0.0000E+00  0.0000E+00  0.0000E+00
    -14.695  0.0000E+00  0.0000E+00  0.0000E+00
    -14.587  0.0000E+00  0.0000E+00  0.0000E+00
    -14.480  0.0000E+00  0.0000E+00  0.0000E+00
    -14.372  0.0000E+00  0.0000E+00  0.0000E+00
    -14.264  0.0000E+00  0.0000E+00  0.0000E+00
    -14.157  0.0000E+00  0.0000E+00  0.0000E+00
    -14.049  0.0000E+00  0.0000E+00  0.0000E+00
    -13.941  0.0000E+00  0.0000E+00  0.0000E+00
    -13.834  0.0000E+00  0.0000E+00  0.0000E+00
    -13.726  0.0000E+00  0.0000E+00  0.0000E+00
    -13.618  0.0000E+00  0.0000E+00  0.0000E+00
    -13.510  0.0000E+00  0.0000E+00  0.0000E+00
    -13.403  0.0000E+00  0.0000E+00  0.0000E+00
    -13.295  0.0000E+00  0.0000E+00  0.0000E+00
    -13.187  0.0000E+00  0.0000E+00  0.0000E+00
    -13.080  0.0000E+00  0.0000E+00  0.0000E+00
    -12.972  0.0000E+00  0.0000E+00  0.0000E+00
    -12.864  0.0000E+00  0.0000E+00  0.0000E+00
    -12.757  0.0000E+00  0.0000E+00  0.0000E+00
    -12.649  0.0000E+00  0.0000E+00  0.0000E+00
    -12.541  0.0000E+00  0.0000E+00  0.0000E+00
    -12.433 -0.6269E-32 -0.1246E-32 -0.9053E-34
    -12.326 -0.2449E-28 -0.4869E-29 -0.3541E-30
    -12.218 -0.5333E-25 -0.1060E-25 -0.7724E-27
    -12.110 -0.6466E-22 -0.1286E-22 -0.9393E-24
    -12.003 -0.4243E-19 -0.8443E-20 -0.6200E-21
    -11.895 -0.1579E-16 -0.3145E-17 -0.2329E-18
    -11.787 -0.3261E-14 -0.6505E-15 -0.4886E-16
    -11.680 -0.3725E-12 -0.7452E-13 -0.5737E-14
    -11.572 -0.2347E-10 -0.4718E-11 -0.3784E-12
    -11.464 -0.8116E-09 -0.1646E-09 -0.1409E-10
    -11.356 -0.1527E-07 -0.3139E-08 -0.2971E-09
    -11.249 -0.1526E-06 -0.3212E-07 -0.3516E-08
    -11.141 -0.7523E-06 -0.1649E-06 -0.2226E-07
    -11.033 -0.1229E-05 -0.3023E-06 -0.6205E-07
    -10.926  0.3599E-05  0.6902E-06  0.2244E-07
    -10.818  0.1911E-04  0.4229E-05  0.5704E-06
    -10.710  0.3338E-04  0.7916E-05  0.1476E-05
    -10.603  0.2842E-04  0.7372E-05  0.1950E-05
    -10.495  0.1230E-04  0.3732E-05  0.1523E-05
    -10.387  0.1946E-05  0.8610E-06  0.6138E-06
    -10.280 -0.7333E-06 -0.1412E-06  0.3009E-07
    -10.172 -0.5045E-06 -0.1567E-06 -0.6690E-07
    -10.064 -0.1240E-06 -0.4287E-07 -0.2388E-07
     -9.956 -0.1555E-07 -0.5618E-08 -0.3568E-08
     -9.849 -0.1565E-07 -0.1869E-08 -0.2909E-09
     -9.741 -0.5009E-06 -0.5076E-07 -0.6290E-09
     -9.633 -0.9039E-05 -0.9160E-06 -0.1117E-07
     -9.526 -0.8183E-04 -0.8296E-05 -0.1025E-06
     -9.418 -0.3199E-03 -0.3254E-04 -0.4456E-06
     -9.310 -0.1409E-03 -0.1642E-04 -0.1043E-05
     -9.203  0.2140E-02  0.1988E-03 -0.4706E-05
     -9.095  0.4918E-02  0.4350E-03 -0.1970E-04
     -8.987  0.6592E-02  0.6755E-03  0.1119E-04
     -8.879  0.1924E-01  0.2527E-02  0.2583E-03
     -8.772  0.3894E-01  0.5263E-02  0.5830E-03
     -8.664  0.3323E-01  0.4483E-02  0.4893E-03
     -8.556  0.8657E-02  0.1101E-02  0.7365E-04
     -8.449 -0.3222E-02 -0.5495E-03 -0.1424E-03
     -8.341  0.4171E-02  0.9252E-03  0.3352E-03
     -8.233  0.2414E-01  0.4879E-02  0.1597E-02
     -8.126  0.3507E-01  0.7241E-02  0.2492E-02
     -8.018  0.3289E-01  0.7277E-02  0.3162E-02
     -7.910  0.3470E-01  0.7508E-02  0.4172E-02
     -7.802  0.2952E-01  0.5076E-02  0.3494E-02
     -7.695  0.2192E-01  0.1622E-02  0.1940E-02
     -7.587  0.4540E-01  0.2090E-02  0.2768E-02
     -7.479  0.7513E-01  0.4100E-02  0.4559E-02
     -7.372  0.5937E-01  0.5532E-02  0.6035E-02
     -7.264  0.4349E-01  0.1120E-01  0.1179E-01
     -7.156  0.6999E-01  0.1852E-01  0.1800E-01
     -7.049  0.9392E-01  0.1888E-01  0.1797E-01
     -6.941  0.8821E-01  0.1416E-01  0.1907E-01
     -6.833  0.8097E-01  0.1194E-01  0.2570E-01
     -6.725  0.8343E-01  0.1422E-01  0.3100E-01
     -6.618  0.9788E-01  0.1770E-01  0.4904E-01
     -6.510  0.1413E+00  0.2099E-01  0.1048E+00
     -6.402  0.1676E+00  0.2578E-01  0.1575E+00
     -6.295  0.1292E+00  0.3052E-01  0.1648E+00
     -6.187  0.1016E+00  0.3684E-01  0.1737E+00
     -6.079  0.1336E+00  0.4481E-01  0.2111E+00
     -5.972  0.1923E+00  0.4944E-01  0.2462E+00
     -5.864  0.2266E+00  0.4908E-01  0.2734E+00
     -5.756  0.2096E+00  0.4998E-01  0.3948E+00
     -5.648  0.1894E+00  0.5991E-01  0.6358E+00
     -5.541  0.1861E+00  0.6449E-01  0.8162E+00
     -5.433  0.1888E+00  0.5721E-01  0.9261E+00
     -5.325  0.1921E+00  0.5468E-01  0.9673E+00
     -5.218  0.1662E+00  0.5441E-01  0.8016E+00
     -5.110  0.1184E+00  0.4643E-01  0.5552E+00
     -5.002  0.8768E-01  0.4022E-01  0.4692E+00
     -4.895  0.6858E-01  0.3866E-01  0.5130E+00
     -4.787  0.4422E-01  0.3714E-01  0.5901E+00
     -4.679  0.3349E-01  0.4605E-01  0.8104E+00
     -4.571  0.3192E-01  0.5834E-01  0.1036E+01
     -4.464  0.2455E-01  0.6056E-01  0.1114E+01
     -4.356  0.2355E-01  0.5996E-01  0.1168E+01
     -4.248  0.2946E-01  0.5483E-01  0.1094E+01
     -4.141  0.3091E-01  0.3886E-01  0.8254E+00
     -4.033  0.2577E-01  0.2281E-01  0.6438E+00
     -3.925  0.1873E-01  0.1863E-01  0.6973E+00
     -3.818  0.1743E-01  0.2404E-01  0.8731E+00
     -3.710  0.2834E-01  0.3790E-01  0.1166E+01
     -3.602  0.6201E-01  0.6565E-01  0.1575E+01
     -3.494  0.9865E-01  0.8948E-01  0.1827E+01
     -3.387  0.8615E-01  0.7877E-01  0.1758E+01
     -3.279  0.4103E-01  0.5006E-01  0.1638E+01
     -3.171  0.1714E-01  0.3279E-01  0.1585E+01
     -3.064  0.1802E-01  0.2996E-01  0.1718E+01
     -2.956  0.2698E-01  0.4143E-01  0.2204E+01
     -2.848  0.3531E-01  0.6747E-01  0.2581E+01
     -2.741  0.4773E-01  0.1002E+00  0.2323E+01
     -2.633  0.7807E-01  0.1300E+00  0.1743E+01
     -2.525  0.1131E+00  0.1489E+00  0.1350E+01
     -2.418  0.1176E+00  0.1458E+00  0.1246E+01
     -2.310  0.8282E-01  0.1157E+00  0.1465E+01
     -2.202  0.4109E-01  0.8962E-01  0.1867E+01
     -2.094  0.2381E-01  0.8951E-01  0.2029E+01
     -1.987  0.2168E-01  0.7172E-01  0.1623E+01
     -1.879  0.1704E-01  0.3014E-01  0.1040E+01
     -1.771  0.1060E-01  0.7133E-02  0.7613E+00
     -1.664  0.1085E-01  0.1099E-01  0.8767E+00
     -1.556  0.1927E-01  0.2926E-01  0.1322E+01
     -1.448  0.3058E-01  0.6072E-01  0.1864E+01
     -1.341  0.4617E-01  0.1057E+00  0.2389E+01
     -1.233  0.6498E-01  0.1326E+00  0.2692E+01
     -1.125  0.7232E-01  0.1148E+00  0.2402E+01
     -1.017  0.5867E-01  0.7781E-01  0.1686E+01
     -0.910  0.3381E-01  0.4995E-01  0.1232E+01
     -0.802  0.1953E-01  0.3740E-01  0.1194E+01
     -0.694  0.2125E-01  0.3865E-01  0.1227E+01
     -0.587  0.2600E-01  0.4908E-01  0.1397E+01
     -0.479  0.2835E-01  0.5774E-01  0.1714E+01
     -0.371  0.2897E-01  0.4887E-01  0.1822E+01
     -0.264  0.2677E-01  0.2922E-01  0.1795E+01
     -0.156  0.2208E-01  0.2003E-01  0.1778E+01
     -0.048  0.1975E-01  0.2853E-01  0.1589E+01
      0.060  0.3092E-01  0.5030E-01  0.1348E+01
      0.167  0.6123E-01  0.7560E-01  0.1167E+01
      0.275  0.8309E-01  0.7914E-01  0.9515E+00
      0.383  0.5728E-01  0.4428E-01  0.5496E+00
      0.490  0.1260E-01  0.7766E-02  0.1287E+00
      0.598 -0.5027E-02  0.3635E-02 -0.2329E-01
      0.706  0.4578E-02  0.2216E-01  0.2010E-01
      0.813  0.2894E-01  0.4501E-01  0.9295E-01
      0.921  0.5377E-01  0.6248E-01  0.1433E+00
      1.029  0.7522E-01  0.7269E-01  0.1864E+00
      1.137  0.8404E-01  0.7533E-01  0.2080E+00
      1.244  0.6168E-01  0.6989E-01  0.1726E+00
      1.352  0.2757E-01  0.6011E-01  0.1189E+00
      1.460  0.8367E-02  0.4715E-01  0.7897E-01
      1.567  0.1079E-01  0.4820E-01  0.8440E-01
      1.675  0.2629E-01  0.5745E-01  0.1271E+00
      1.783  0.4257E-01  0.6007E-01  0.1840E+00
      1.890  0.6260E-01  0.8328E-01  0.2846E+00
      1.998  0.6471E-01  0.9916E-01  0.2948E+00
      2.106  0.3485E-01  0.6246E-01  0.1485E+00
      2.214  0.9599E-02  0.2223E-01  0.4364E-01
      2.321  0.1528E-01  0.4809E-01  0.9662E-01
      2.429  0.3322E-01  0.1189E+00  0.1911E+00
      2.537  0.3324E-01  0.1421E+00  0.1769E+00
      2.644  0.3543E-01  0.1083E+00  0.1222E+00
      2.752  0.7300E-01  0.1051E+00  0.1566E+00
      2.860  0.1008E+00  0.1278E+00  0.1939E+00
      2.967  0.7446E-01  0.1081E+00  0.1359E+00
      3.075  0.3717E-01  0.6298E-01  0.6260E-01
      3.183  0.2354E-01  0.3857E-01  0.4196E-01
      3.291  0.2150E-01  0.3872E-01  0.4920E-01
      3.398  0.2210E-01  0.4304E-01  0.5601E-01
      3.506  0.2674E-01  0.4866E-01  0.6804E-01
      3.614  0.4363E-01  0.7499E-01  0.1054E+00
      3.721  0.5545E-01  0.9489E-01  0.1275E+00
      3.829  0.3938E-01  0.9224E-01  0.1013E+00
      3.937  0.1638E-01  0.9636E-01  0.7691E-01
      4.044  0.5435E-02  0.8005E-01  0.5953E-01
      4.152  0.7651E-02  0.4431E-01  0.3679E-01
      4.260  0.2581E-01  0.4460E-01  0.4317E-01
      4.368  0.4056E-01  0.6363E-01  0.6416E-01
      4.475  0.4594E-01  0.6993E-01  0.7859E-01
      4.583  0.7189E-01  0.8024E-01  0.1050E+00
      4.691  0.9979E-01  0.8241E-01  0.1154E+00
      4.798  0.8068E-01  0.5531E-01  0.7870E-01
      4.906  0.3989E-01  0.2768E-01  0.3761E-01
      5.014  0.2783E-01  0.2441E-01  0.3363E-01
      5.121  0.2643E-01  0.2389E-01  0.3783E-01
      5.229  0.3166E-01  0.2635E-01  0.4304E-01
      5.337  0.7543E-01  0.5172E-01  0.7444E-01
      5.444  0.1288E+00  0.6847E-01  0.9284E-01
      5.552  0.1169E+00  0.4524E-01  0.6002E-01
      5.660  0.4716E-01  0.1108E-01  0.1476E-01
      5.768  0.3935E-02 -0.2823E-03 -0.6720E-03
      5.875  0.9424E-02  0.7309E-02  0.7825E-02
      5.983  0.2046E-01  0.1332E-01  0.1487E-01
      6.091  0.1266E-01  0.7952E-02  0.8922E-02
      6.198  0.1584E-02  0.9900E-03  0.1110E-02
      6.306 -0.1125E-02 -0.6982E-03 -0.7847E-03
      6.414 -0.4470E-03 -0.2775E-03 -0.3118E-03
      6.521 -0.6505E-04 -0.4038E-04 -0.4536E-04
      6.629 -0.4579E-05 -0.2843E-05 -0.3193E-05
      6.737 -0.1678E-06 -0.1042E-06 -0.1169E-06
      6.845 -0.3296E-08 -0.2046E-08 -0.2297E-08
      6.952 -0.3524E-10 -0.2188E-10 -0.2455E-10
      7.060 -0.2068E-12 -0.1284E-12 -0.1441E-12
      7.168 -0.6649E-15 -0.4128E-15 -0.4640E-15
      7.275  0.0000E+00  0.0000E+00  0.0000E+00
      7.383  0.0000E+00  0.0000E+00  0.0000E+00
      7.491  0.0000E+00  0.0000E+00  0.0000E+00
      7.598  0.0000E+00  0.0000E+00  0.0000E+00
      7.706  0.0000E+00  0.0000E+00  0.0000E+00
      7.814  0.0000E+00  0.0000E+00  0.0000E+00
      7.922  0.0000E+00  0.0000E+00  0.0000E+00
      7.92156964    -24.38803498  301     -0.17838342      1.00000000
    -24.388  0.0000E+00  0.0000E+00  0.0000E+00
    -24.280  0.0000E+00  0.0000E+00  0.0000E+00
    -24.173  0.0000E+00  0.0000E+00  0.0000E+00
    -24.065 -0.6448E-40 -0.3174E-39 -0.8069E-38
    -23.957 -0.3788E-36 -0.1865E-35 -0.4737E-34
    -23.850 -0.1240E-32 -0.6106E-32 -0.1550E-30
    -23.742 -0.2261E-29 -0.1113E-28 -0.2824E-27
    -23.634 -0.2293E-26 -0.1129E-25 -0.2863E-24
    -23.526 -0.1253E-23 -0.6170E-23 -0.1564E-21
    -23.419 -0.3887E-21 -0.1914E-20 -0.4848E-19
    -23.311 -0.6657E-19 -0.3278E-18 -0.8296E-17
    -23.203 -0.6258E-17 -0.3082E-16 -0.7794E-15
    -23.096 -0.3202E-15 -0.1577E-14 -0.3986E-13
    -22.988 -0.8787E-14 -0.4328E-13 -0.1093E-11
    -22.880 -0.1255E-12 -0.6184E-12 -0.1561E-10
    -22.773 -0.8685E-12 -0.4279E-11 -0.1079E-09
    -22.665 -0.2211E-11 -0.1089E-10 -0.2743E-09
    -22.557  0.3034E-11  0.1494E-10  0.3780E-09
    -22.449  0.2514E-10  0.1239E-09  0.3122E-08
    -22.342  0.4362E-10  0.2149E-09  0.5411E-08
    -22.234  0.2938E-10  0.1448E-09  0.3640E-08
    -22.126  0.5392E-11  0.2658E-10  0.6668E-09
    -22.019 -0.2171E-11 -0.1070E-10 -0.2694E-09
    -21.911 -0.1091E-11 -0.5376E-11 -0.1351E-09
    -21.803 -0.1793E-12 -0.8835E-12 -0.2219E-10
    -21.696 -0.1398E-13 -0.6888E-13 -0.1729E-11
    -21.588 -0.5631E-15 -0.2776E-14 -0.6960E-13
    -21.480 -0.1213E-16 -0.5977E-16 -0.1498E-14
    -21.372 -0.1419E-18 -0.6995E-18 -0.1752E-16
    -21.265 -0.9106E-21 -0.4489E-20 -0.1123E-18
    -21.157 -0.3223E-23 -0.1589E-22 -0.3974E-21
    -21.049  0.0000E+00  0.0000E+00  0.0000E+00
    -20.942  0.0000E+00  0.0000E+00  0.0000E+00
    -20.834  0.0000E+00  0.0000E+00  0.0000E+00
    -20.726  0.0000E+00  0.0000E+00  0.0000E+00
    -20.619  0.0000E+00  0.0000E+00  0.0000E+00
    -20.511  0.0000E+00  0.0000E+00  0.0000E+00
    -20.403  0.0000E+00  0.0000E+00  0.0000E+00
    -20.295  0.0000E+00  0.0000E+00  0.0000E+00
    -20.188  0.0000E+00  0.0000E+00  0.0000E+00
    -20.080  0.0000E+00  0.0000E+00  0.0000E+00
    -19.972  0.0000E+00  0.0000E+00  0.0000E+00
    -19.865  0.0000E+00  0.0000E+00  0.0000E+00
    -19.757  0.0000E+00  0.0000E+00  0.0000E+00
    -19.649  0.0000E+00  0.0000E+00  0.0000E+00
    -19.542  0.0000E+00  0.0000E+00  0.0000E+00
    -19.434  0.0000E+00  0.0000E+00  0.0000E+00
    -19.326  0.0000E+00  0.0000E+00  0.0000E+00
    -19.218  0.0000E+00  0.0000E+00  0.0000E+00
    -19.111  0.0000E+00  0.0000E+00  0.0000E+00
    -19.003  0.0000E+00  0.0000E+00  0.0000E+00
    -18.895  0.0000E+00  0.0000E+00  0.0000E+00
    -18.788  0.0000E+00  0.0000E+00  0.0000E+00
    -18.680  0.0000E+00  0.0000E+00  0.0000E+00
    -18.572  0.0000E+00  0.0000E+00  0.0000E+00
    -18.465  0.0000E+00  0.0000E+00  0.0000E+00
    -18.357  0.0000E+00  0.0000E+00  0.0000E+00
    -18.249  0.0000E+00  0.0000E+00  0.0000E+00
    -18.142  0.0000E+00  0.0000E+00  0.0000E+00
    -18.034  0.0000E+00  0.0000E+00  0.0000E+00
    -17.926  0.0000E+00  0.0000E+00  0.0000E+00
    -17.818  0.0000E+00  0.0000E+00  0.0000E+00
    -17.711  0.0000E+00  0.0000E+00  0.0000E+00
    -17.603  0.0000E+00  0.0000E+00  0.0000E+00
    -17.495  0.0000E+00  0.0000E+00  0.0000E+00
    -17.388  0.0000E+00  0.0000E+00  0.0000E+00
    -17.280  0.0000E+00  0.0000E+00  0.0000E+00
    -17.172  0.0000E+00  0.0000E+00  0.0000E+00
    -17.065  0.0000E+00  0.0000E+00  0.0000E+00
    -16.957  0.0000E+00  0.0000E+00  0.0000E+00
    -16.849  0.0000E+00  0.0000E+00  0.0000E+00
    -16.741  0.0000E+00  0.0000E+00  0.0000E+00
    -16.634  0.0000E+00  0.0000E+00  0.0000E+00
    -16.526  0.0000E+00  0.0000E+00  0.0000E+00
    -16.418  0.0000E+00  0.0000E+00  0.0000E+00
    -16.311  0.0000E+00  0.0000E+00  0.0000E+00
    -16.203  0.0000E+00  0.0000E+00  0.0000E+00
    -16.095  0.0000E+00  0.0000E+00  0.0000E+00
    -15.988  0.0000E+00  0.0000E+00  0.0000E+00
    -15.880  0.0000E+00  0.0000E+00  0.0000E+00
    -15.772  0.0000E+00  0.0000E+00  0.0000E+00
    -15.664  0.0000E+00  0.0000E+00  0.0000E+00
    -15.557  0.0000E+00  0.0000E+00  0.0000E+00
    -15.449  0.0000E+00  0.0000E+00  0.0000E+00
    -15.341  0.0000E+00  0.0000E+00  0.0000E+00
    -15.234  0.0000E+00  0.0000E+00  0.0000E+00
    -15.126  0.0000E+00  0.0000E+00  0.0000E+00
    -15.018  0.0000E+00  0.0000E+00  0.0000E+00
    -14.911  0.0000E+00  0.0000E+00  0.0000E+00
    -14.803  0.0000E+00  0.0000E+00  0.0000E+00