   18   18    1    1
  0.4124378E+02  0.5643844E-09  0.5643844E-09  0.2691227E-08  0.5000000E-15
  1.000000000000000E-004
  CAR 
 unknown system                          
    170     13    104
 
  0.0000000E+00  0.0000000E+00  0.0000000E+00  0.4000000E-01
    1      -22.388035   1.000000
    2      -10.830867   1.000000
    3       -9.102462   1.000000
    4       -7.792157   1.000000
    5       -6.989108   1.000000
    6       -6.788112   1.000000
    7       -6.670950   1.000000
    8       -6.670815   1.000000
    9       -6.514355   1.000000
   10       -6.410377   1.000000
   11       -6.410348   1.000000
   12       -6.317334   1.000000
   13       -6.257781   1.000000
   14       -6.237227   1.000000
   15       -6.237165   1.000000
   16       -5.841967   1.000000
   17       -5.808726   1.000000
   18       -5.808706   1.000000
   19       -5.672427   1.000000
   20       -5.657312   1.000000
   21       -5.657117   1.000000
   22       -5.421418   1.000000
   23       -5.421375   1.000000
   24       -5.052168   1.000000
   25       -4.706441   1.000000
   26       -4.706328   1.000000
   27       -4.280934   1.000000
   28       -3.877812   1.000000
   29       -3.877736   1.000000
   30       -3.809749   1.000000
   31       -3.756046   1.000000
   32       -3.755991   1.000000
   33       -3.729925   1.000000
   34       -3.584793   1.000000
   35       -3.506701   1.000000
   36       -3.506687   1.000000
   37       -3.406217   1.000000
   38       -3.400638   1.000000
   39       -3.400525   1.000000
   40       -3.225081   1.000000
   41       -3.224962   1.000000
   42       -3.190859   1.000000
   43       -3.185477   1.000000
   44       -3.185445   1.000000
   45       -3.045598   1.000000
   46       -3.045589   1.000000
   47       -2.745085   1.000000
   48       -2.645319   1.000000
   49       -2.645240   1.000000
   50       -2.553749   1.000000
   51       -2.328131   1.000000
   52       -2.328051   1.000000
   53       -2.168203   1.000000
   54       -2.128294   1.000000
   55       -2.128231   1.000000
   56       -1.764932   1.000000
   57       -1.616726   1.000000
   58       -1.616711   1.000000
   59       -1.468187   1.000000
   60       -1.468015   1.000000
   61       -1.251194   1.000000
   62       -1.251086   1.000000
   63       -1.213461   1.000000
   64       -0.969983   1.000000
   65       -0.969945   1.000000
   66       -0.831404   1.000020
   67       -0.831293   1.000020
   68       -0.826632   1.000023
   69       -0.500209   1.022644
   70       -0.421680   1.035447
   71       -0.421603   1.035446
   72       -0.367209   1.018315
   73       -0.363906   1.015893
   74       -0.363630   1.015682
   75       -0.260762   0.817948
   76       -0.260466   0.817009
   77       -0.071100   0.110561
   78       -0.063890   0.092724
   79       -0.063774   0.092447
   80        0.022988  -0.025825
   81        0.058684  -0.035205
   82        0.058766  -0.035211
   83        0.131300  -0.025451
   84        0.140799  -0.023255
   85        0.140894  -0.023233
   86        0.156164  -0.019750
   87        0.284371  -0.002555
   88        0.287660  -0.002390
   89        0.287912  -0.002378
   90        0.655703  -0.000000
   91        0.655749  -0.000000
   92        0.759642  -0.000000
   93        1.388430  -0.000000
   94        2.026226  -0.000000
   95        2.026323  -0.000000
   96        2.459445  -0.000000
   97        2.479998  -0.000000
   98        2.480067  -0.000000
   99        2.678723  -0.000000
  100        2.733539  -0.000000
  101        2.733685  -0.000000
  102        3.278562  -0.000000
  103        3.278644  -0.000000
  104        4.789777  -0.000000
 
  0.2000000E+00  0.2775558E-16  0.0000000E+00  0.8000000E-01
    1      -22.387655   1.000000
    2      -10.728952   1.000000
    3       -8.789213   1.000000
    4       -7.518355   1.000000
    5       -6.872250   1.000000
    6       -6.646891   1.000000
    7       -6.543543   1.000000
    8       -6.478414   1.000000
    9       -6.446846   1.000000
   10       -6.265445   1.000000
   11       -6.194420   1.000000
   12       -6.166767   1.000000
   13       -6.083819   1.000000
   14       -6.015309   1.000000
   15       -6.007804   1.000000
   16       -5.695670   1.000000
   17       -5.666053   1.000000
   18       -5.654632   1.000000
   19       -5.549401   1.000000
   20       -5.404544   1.000000
   21       -5.400010   1.000000
   22       -5.304091   1.000000
   23       -5.215769   1.000000
   24       -4.951875   1.000000
   25       -4.655821   1.000000
   26       -4.638062   1.000000
   27       -4.318782   1.000000
   28       -3.999259   1.000000
   29       -3.986720   1.000000
   30       -3.904875   1.000000
   31       -3.843462   1.000000
   32       -3.719112   1.000000
   33       -3.701286   1.000000
   34       -3.637319   1.000000
   35       -3.630198   1.000000
   36       -3.532888   1.000000
   37       -3.340773   1.000000
   38       -3.307192   1.000000
   39       -3.280703   1.000000
   40       -3.245584   1.000000
   41       -3.214251   1.000000
   42       -3.185156   1.000000
   43       -3.135671   1.000000
   44       -3.120556   1.000000
   45       -3.027438   1.000000
   46       -2.974302   1.000000
   47       -2.939452   1.000000
   48       -2.869160   1.000000
   49       -2.860075   1.000000
   50       -2.819600   1.000000
   51       -2.657720   1.000000
   52       -2.585370   1.000000
   53       -2.303692   1.000000
   54       -2.253775   1.000000
   55       -2.129922   1.000000
   56       -2.064172   1.000000
   57       -1.829594   1.000000
   58       -1.801763   1.000000
   59       -1.595684   1.000000
   60       -1.575452   1.000000
   61       -1.454299   1.000000
   62       -1.413917   1.000000
   63       -1.374335   1.000000
   64       -1.352374   1.000000
   65       -1.273666   1.000000
   66       -1.247267   1.000000
   67       -1.210675   1.000000
   68       -1.209983   1.000000
   69       -1.039453   1.000000
   70       -0.850305   1.000011
   71       -0.816477   1.000031
   72       -0.696827   1.000759
   73       -0.680926   1.001094
   74       -0.598908   1.005659
   75       -0.551183   1.012095
   76       -0.545095   1.013175
   77       -0.522335   1.017695
   78       -0.459371   1.031590
   79       -0.422036   1.035451
   80       -0.417733   1.035332
   81       -0.283311   0.883329
   82       -0.228577   0.705152
   83       -0.216225   0.656986
   84       -0.191405   0.554972
   85       -0.152106   0.389870
   86       -0.041477   0.045642
   87       -0.022689   0.015667
   88        0.044241  -0.033234
   89        0.057922  -0.035153
   90        0.210715  -0.009496
   91        0.916946  -0.000000
   92        1.288244  -0.000000
   93        1.345861  -0.000000
   94        1.594922  -0.000000
   95        1.865666  -0.000000
   96        1.929240  -0.000000
   97        2.426559  -0.000000
   98        2.506371  -0.000000
   99        3.080683  -0.000000
  100        3.646762  -0.000000
  101        3.890604  -0.000000
  102        4.219950  -0.000000
  103        4.568824  -0.000000
  104        5.262450  -0.000000
 
  0.4000000E+00  0.5551115E-16  0.0000000E+00  0.8000000E-01
    1      -22.386909   1.000000
    2      -10.558104   1.000000
    3       -7.945409   1.000000
    4       -7.055177   1.000000
    5       -6.893267   1.000000
    6       -6.620994   1.000000
    7       -6.441848   1.000000
    8       -6.356641   1.000000
    9       -6.067572   1.000000
   10       -5.777797   1.000000
   11       -5.703316   1.000000
   12       -5.694513   1.000000
   13       -5.633651   1.000000
   14       -5.565495   1.000000
   15       -5.551383   1.000000
   16       -5.404443   1.000000
   17       -5.204967   1.000000
   18       -5.173439   1.000000
   19       -5.152991   1.000000
   20       -5.033608   1.000000
   21       -4.979062   1.000000
   22       -4.917661   1.000000
   23       -4.632445   1.000000
   24       -4.623519   1.000000
   25       -4.520351   1.000000
   26       -4.445307   1.000000
   27       -4.437455   1.000000
   28       -4.354519   1.000000
   29       -4.203683   1.000000
   30       -4.191219   1.000000
   31       -4.117941   1.000000
   32       -4.036830   1.000000
   33       -3.816377   1.000000
   34       -3.806680   1.000000
   35       -3.780512   1.000000
   36       -3.691031   1.000000
   37       -3.572092   1.000000
   38       -3.534784   1.000000
   39       -3.532920   1.000000
   40       -3.379266   1.000000
   41       -3.352567   1.000000
   42       -3.274564   1.000000
   43       -3.200254   1.000000
   44       -3.130052   1.000000
   45       -2.980178   1.000000
   46       -2.970932   1.000000
   47       -2.946074   1.000000
   48       -2.942048   1.000000
   49       -2.876933   1.000000
   50       -2.819560   1.000000
   51       -2.809570   1.000000
   52       -2.691888   1.000000
   53       -2.626325   1.000000
   54       -2.611449   1.000000
   55       -2.609178   1.000000
   56       -2.522406   1.000000
   57       -2.409480   1.000000
   58       -2.377480   1.000000
   59       -2.269100   1.000000
   60       -2.219888   1.000000
   61       -2.184220   1.000000
   62       -2.138966   1.000000
   63       -2.083040   1.000000
   64       -1.854598   1.000000
   65       -1.721290   1.000000
   66       -1.720077   1.000000
   67       -1.651050   1.000000
   68       -1.583627   1.000000
   69       -1.501534   1.000000
   70       -1.458688   1.000000
   71       -1.436127   1.000000
   72       -1.376981   1.000000
   73       -1.294066   1.000000
   74       -1.286644   1.000000
   75       -1.234816   1.000000
   76       -1.168538   1.000000
   77       -1.149831   1.000000
   78       -0.994971   1.000000
   79       -0.852932   1.000010
   80       -0.702626   1.000662
   81       -0.591992   1.006377
   82       -0.561767   1.010359
   83       -0.413115   1.035027
   84       -0.232680   0.720631
   85       -0.230144   0.711096
   86       -0.219506   0.669992
   87       -0.129284   0.299021
   88        0.031314  -0.029455
   89        0.077508  -0.035030
   90        0.242975  -0.005577
   91        0.989301  -0.000000
   92        1.621684  -0.000000
   93        1.661917  -0.000000
   94        1.886452  -0.000000
   95        1.907432  -0.000000
   96        2.333340  -0.000000
   97        2.739375  -0.000000
   98        2.862496  -0.000000
   99        3.307817  -0.000000
  100        3.998947  -0.000000
  101        4.312059  -0.000000
  102        4.719624  -0.000000
  103        5.421476   0.000000
  104        5.921570   0.000000
 
  0.0000000E+00  0.2000000E+00  0.0000000E+00  0.8000000E-01
    1      -22.387655   1.000000
    2      -10.728952   1.000000
    3       -8.789213   1.000000
    4       -7.518355   1.000000
    5       -6.872249   1.000000
    6       -6.646886   1.000000
    7       -6.543559   1.000000
    8       -6.478412   1.000000
    9       -6.446842   1.000000
   10       -6.265453   1.000000
   11       -6.194394   1.000000
   12       -6.166790   1.000000
   13       -6.083806   1.000000
   14       -6.015326   1.000000
   15       -6.007780   1.000000
   16       -5.695678   1.000000
   17       -5.666057   1.000000
   18       -5.654633   1.000000
   19       -5.549399   1.000000
   20       -5.404481   1.000000
   21       -5.400078   1.000000
   22       -5.304121   1.000000
   23       -5.215757   1.000000
   24       -4.951857   1.000000
   25       -4.655861   1.000000
   26       -4.638033   1.000000
   27       -4.318763   1.000000
   28       -3.999301   1.000000
   29       -3.986712   1.000000
   30       -3.904907   1.000000
   31       -3.843424   1.000000
   32       -3.719179   1.000000
   33       -3.701302   1.000000
   34       -3.637265   1.000000
   35       -3.630191   1.000000
   36       -3.532891   1.000000
   37       -3.340803   1.000000
   38       -3.307130   1.000000
   39       -3.280706   1.000000
   40       -3.245539   1.000000
   41       -3.214258   1.000000
   42       -3.185118   1.000000
   43       -3.135656   1.000000
   44       -3.120648   1.000000
   45       -3.027416   1.000000
   46       -2.974350   1.000000
   47       -2.939442   1.000000
   48       -2.869133   1.000000
   49       -2.860090   1.000000
   50       -2.819597   1.000000
   51       -2.657685   1.000000
   52       -2.585383   1.000000
   53       -2.303686   1.000000
   54       -2.253769   1.000000
   55       -2.129933   1.000000
   56       -2.064174   1.000000
   57       -1.829583   1.000000
   58       -1.801746   1.000000
   59       -1.595706   1.000000
   60       -1.575432   1.000000
   61       -1.454365   1.000000
   62       -1.413923   1.000000
   63       -1.374291   1.000000
   64       -1.352377   1.000000
   65       -1.273700   1.000000
   66       -1.247263   1.000000
   67       -1.210681   1.000000
   68       -1.209979   1.000000
   69       -1.039459   1.000000
   70       -0.850304   1.000011
   71       -0.816453   1.000031
   72       -0.696802   1.000760
   73       -0.680938   1.001094
   74       -0.598886   1.005661
   75       -0.551194   1.012094
   76       -0.545147   1.013166
   77       -0.522318   1.017698
   78       -0.459419   1.031581
   79       -0.422039   1.035451
   80       -0.417684   1.035330
   81       -0.283370   0.883483
   82       -0.228583   0.705172
   83       -0.216252   0.657095
   84       -0.191355   0.554759
   85       -0.152033   0.389566
   86       -0.041370   0.045448
   87       -0.022642   0.015602
   88        0.044248  -0.033236
   89        0.057888  -0.035150
   90        0.210640  -0.009507
   91        0.916968  -0.000000
   92        1.288221  -0.000000
   93        1.345876  -0.000000
   94        1.594915  -0.000000
   95        1.865659  -0.000000
   96        1.929240  -0.000000
   97        2.426589  -0.000000
   98        2.506328  -0.000000
   99        3.080675  -0.000000
  100        3.646751  -0.000000
  101        3.890559  -0.000000
  102        4.219959  -0.000000
  103        4.568822  -0.000000
  104        5.270566  -0.000000
 
  0.2000000E+00  0.2000000E+00  0.0000000E+00  0.8000000E-01
    1      -22.387654   1.000000
    2      -10.728957   1.000000
    3       -8.789212   1.000000
    4       -7.518357   1.000000
    5       -6.872258   1.000000
    6       -6.646948   1.000000
    7       -6.543448   1.000000
    8       -6.478414   1.000000
    9       -6.446850   1.000000
   10       -6.265439   1.000000
   11       -6.194448   1.000000
   12       -6.166767   1.000000
   13       -6.083834   1.000000
   14       -6.015287   1.000000
   15       -6.007821   1.000000
   16       -5.695664   1.000000
   17       -5.666045   1.000000
   18       -5.654628   1.000000
   19       -5.549409   1.000000
   20       -5.404618   1.000000
   21       -5.399931   1.000000
   22       -5.304065   1.000000
   23       -5.215780   1.000000
   24       -4.951893   1.000000
   25       -4.655764   1.000000
   26       -4.638115   1.000000
   27       -4.318815   1.000000
   28       -3.999251   1.000000
   29       -3.986729   1.000000
   30       -3.904836   1.000000
   31       -3.843454   1.000000
   32       -3.719038   1.000000
   33       -3.701266   1.000000
   34       -3.637370   1.000000
   35       -3.630209   1.000000
   36       -3.532868   1.000000
   37       -3.340738   1.000000
   38       -3.307254   1.000000
   39       -3.280705   1.000000
   40       -3.245635   1.000000
   41       -3.214258   1.000000
   42       -3.185220   1.000000
   43       -3.135713   1.000000
   44       -3.120449   1.000000
   45       -3.027443   1.000000
   46       -2.974239   1.000000
   47       -2.939455   1.000000
   48       -2.869171   1.000000
   49       -2.860071   1.000000
   50       -2.819598   1.000000
   51       -2.657770   1.000000
   52       -2.585320   1.000000
   53       -2.303680   1.000000
   54       -2.253798   1.000000
   55       -2.129933   1.000000
   56       -2.064177   1.000000
   57       -1.829587   1.000000
   58       -1.801795   1.000000
   59       -1.595646   1.000000
   60       -1.575484   1.000000
   61       -1.454217   1.000000
   62       -1.413899   1.000000
   63       -1.374400   1.000000
   64       -1.352379   1.000000
   65       -1.273635   1.000000
   66       -1.247291   1.000000
   67       -1.210660   1.000000
   68       -1.209984   1.000000
   69       -1.039434   1.000000
   70       -0.850270   1.000011
   71       -0.816493   1.000031
   72       -0.696853   1.000759
   73       -0.680917   1.001094
   74       -0.598936   1.005656
   75       -0.551168   1.012098
   76       -0.545036   1.013186
   77       -0.522351   1.017691
   78       -0.459316   1.031600
   79       -0.422020   1.035451
   80       -0.417780   1.035335
   81       -0.283249   0.883167
   82       -0.228576   0.705147
   83       -0.216215   0.656947
   84       -0.191460   0.555202
   85       -0.152187   0.390200
   86       -0.041582   0.045834
   87       -0.022743   0.015741
   88        0.044230  -0.033232
   89        0.057963  -0.035156
   90        0.210776  -0.009487
   91        0.916870  -0.000000
   92        1.288316  -0.000000
   93        1.345852  -0.000000
   94        1.594913  -0.000000
   95        1.865659  -0.000000
   96        1.929285  -0.000000
   97        2.426524  -0.000000
   98        2.506505  -0.000000
   99        3.080680  -0.000000
  100        3.646794  -0.000000
  101        3.890471  -0.000000
  102        4.219859  -0.000000
  103        4.568736  -0.000000
  104        5.263423  -0.000000
 
  0.4000000E+00  0.2000000E+00  0.0000000E+00  0.8000000E-01
    1      -22.386838   1.000000
    2      -10.591420   1.000000
    3       -8.201652   1.000000
    4       -7.095037   1.000000
    5       -6.663905   1.000000
    6       -6.621502   1.000000
    7       -6.419362   1.000000
    8       -6.354307   1.000000
    9       -6.284527   1.000000
   10       -5.925037   1.000000
   11       -5.916213   1.000000
   12       -5.854758   1.000000
   13       -5.710053   1.000000
   14       -5.643806   1.000000
   15       -5.617818   1.000000
   16       -5.470159   1.000000
   17       -5.363854   1.000000
   18       -5.299660   1.000000
   19       -5.257938   1.000000
   20       -5.217064   1.000000
   21       -5.025491   1.000000
   22       -4.901015   1.000000
   23       -4.872498   1.000000
   24       -4.707437   1.000000
   25       -4.551087   1.000000
   26       -4.514165   1.000000
   27       -4.396375   1.000000
   28       -4.332045   1.000000
   29       -4.221986   1.000000
   30       -4.091156   1.000000
   31       -4.029791   1.000000
   32       -3.958847   1.000000
   33       -3.877882   1.000000
   34       -3.690773   1.000000
   35       -3.649193   1.000000
   36       -3.600713   1.000000
   37       -3.539967   1.000000
   38       -3.441137   1.000000
   39       -3.391754   1.000000
   40       -3.340056   1.000000
   41       -3.322644   1.000000
   42       -3.288179   1.000000
   43       -3.230644   1.000000
   44       -3.148089   1.000000
   45       -3.140594   1.000000
   46       -3.088798   1.000000
   47       -3.002086   1.000000
   48       -2.907349   1.000000
   49       -2.845239   1.000000
   50       -2.796212   1.000000
   51       -2.763553   1.000000
   52       -2.597816   1.000000
   53       -2.493824   1.000000
   54       -2.434770   1.000000
   55       -2.405484   1.000000
   56       -2.385652   1.000000
   57       -2.335395   1.000000
   58       -2.285102   1.000000
   59       -2.167165   1.000000
   60       -2.112953   1.000000
   61       -2.092147   1.000000
   62       -2.062664   1.000000
   63       -1.979292   1.000000
   64       -1.931782   1.000000
   65       -1.607971   1.000000
   66       -1.586768   1.000000
   67       -1.541657   1.000000
   68       -1.490574   1.000000
   69       -1.441645   1.000000
   70       -1.358333   1.000000
   71       -1.174239   1.000000
   72       -1.152843   1.000000
   73       -1.119023   1.000000
   74       -1.102912   1.000000
   75       -1.060011   1.000000
   76       -0.837324   1.000016
   77       -0.677924   1.001170
   78       -0.607525   1.004855
   79       -0.575044   1.008435
   80       -0.508296   1.020793
   81       -0.466101   1.030280
   82       -0.438050   1.034704
   83       -0.371419   1.021126
   84       -0.304069   0.932364
   85       -0.211699   0.638824
   86       -0.181714   0.514091
   87       -0.112601   0.237642
   88       -0.016707   0.007839
   89        0.011933  -0.019345
   90        0.147400  -0.021734
   91        0.179586  -0.014825
   92        0.814282  -0.000000
   93        1.046329  -0.000000
   94        1.133795  -0.000000
   95        2.374085  -0.000000
   96        2.829441  -0.000000
   97        2.966242  -0.000000
   98        3.390250  -0.000000
   99        3.596462  -0.000000
  100        3.718366  -0.000000
  101        3.938240  -0.000000
  102        4.558858  -0.000000
  103        4.981595  -0.000000
  104        5.398022   0.000000
 
 -0.4000000E+00  0.2000000E+00  0.0000000E+00  0.8000000E-01
    1      -22.386569   1.000000
    2      -10.504028   1.000000
    3       -7.267591   1.000000
    4       -7.209133   1.000000
    5       -6.735635   1.000000
    6       -6.616588   1.000000
    7       -6.392462   1.000000
    8       -6.182267   1.000000
    9       -6.096444   1.000000
   10       -5.932826   1.000000
   11       -5.589164   1.000000
   12       -5.402981   1.000000
   13       -5.319533   1.000000
   14       -5.273676   1.000000
   15       -5.225229   1.000000
   16       -5.152627   1.000000
   17       -5.043425   1.000000
   18       -4.979163   1.000000
   19       -4.931744   1.000000
   20       -4.779492   1.000000
   21       -4.762877   1.000000
   22       -4.749448   1.000000
   23       -4.710729   1.000000
   24       -4.614469   1.000000
   25       -4.571547   1.000000
   26       -4.406635   1.000000
   27       -4.391276   1.000000
   28       -4.379526   1.000000
   29       -4.343616   1.000000
   30       -4.300300   1.000000
   31       -4.256899   1.000000
   32       -4.214308   1.000000
   33       -4.174784   1.000000
   34       -3.967116   1.000000
   35       -3.818013   1.000000
   36       -3.761677   1.000000
   37       -3.738772   1.000000
   38       -3.712704   1.000000
   39       -3.611368   1.000000
   40       -3.581130   1.000000
   41       -3.558381   1.000000
   42       -3.518191   1.000000
   43       -3.498546   1.000000
   44       -3.418903   1.000000
   45       -3.340311   1.000000
   46       -3.189941   1.000000
   47       -3.154179   1.000000
   48       -3.059059   1.000000
   49       -2.970231   1.000000
   50       -2.933202   1.000000
   51       -2.881852   1.000000
   52       -2.822528   1.000000
   53       -2.804152   1.000000
   54       -2.792237   1.000000
   55       -2.616582   1.000000
   56       -2.544241   1.000000
   57       -2.345007   1.000000
   58       -2.271237   1.000000
   59       -2.212048   1.000000
   60       -2.185097   1.000000
   61       -2.150895   1.000000
   62       -2.090215   1.000000
   63       -1.963835   1.000000
   64       -1.865664   1.000000
   65       -1.830174   1.000000
   66       -1.782686   1.000000
   67       -1.666773   1.000000
   68       -1.627314   1.000000
   69       -1.488655   1.000000
   70       -1.487260   1.000000
   71       -1.374382   1.000000
   72       -1.329722   1.000000
   73       -1.280117   1.000000
   74       -1.252787   1.000000
   75       -1.168145   1.000000
   76       -1.055363   1.000000
   77       -1.023882   1.000000
   78       -0.906179   1.000002
   79       -0.874047   1.000005
   80       -0.800939   1.000049
   81       -0.706401   1.000605
   82       -0.550871   1.012149
   83       -0.495565   1.023718
   84       -0.440313   1.034471
   85       -0.417399   1.035317
   86       -0.370108   1.020283
   87       -0.228513   0.704907
   88       -0.207073   0.620021
   89        0.013032  -0.020080
   90        0.204487  -0.010439
   91        0.255984  -0.004414
   92        0.287455  -0.002400
   93        1.099182  -0.000000
   94        1.668748  -0.000000
   95        2.036738  -0.000000
   96        2.838729  -0.000000
   97        3.143971  -0.000000
   98        3.521075  -0.000000
   99        3.697482  -0.000000
  100        4.366870  -0.000000
  101        4.702094  -0.000000
  102        5.052596  -0.000000
  103        5.318537   0.000000
  104        5.488341   0.000000
 
 -0.2000000E+00  0.2000000E+00  0.0000000E+00  0.8000000E-01
    1      -22.386838   1.000000
    2      -10.591411   1.000000
    3       -8.201652   1.000000
    4       -7.095020   1.000000
    5       -6.663914   1.000000
    6       -6.621468   1.000000
    7       -6.419408   1.000000
    8       -6.354331   1.000000
    9       -6.284551   1.000000
   10       -5.925039   1.000000
   11       -5.916179   1.000000
   12       -5.854760   1.000000
   13       -5.710067   1.000000
   14       -5.643658   1.000000
   15       -5.617823   1.000000
   16       -5.470195   1.000000
   17       -5.363962   1.000000
   18       -5.299627   1.000000
   19       -5.257948   1.000000
   20       -5.217098   1.000000
   21       -5.025560   1.000000
   22       -4.900964   1.000000
   23       -4.872507   1.000000
   24       -4.707401   1.000000
   25       -4.551097   1.000000
   26       -4.514170   1.000000
   27       -4.396359   1.000000
   28       -4.331990   1.000000
   29       -4.222030   1.000000
   30       -4.091235   1.000000
   31       -4.029810   1.000000
   32       -3.958786   1.000000
   33       -3.878012   1.000000
   34       -3.690905   1.000000
   35       -3.649044   1.000000
   36       -3.600620   1.000000
   37       -3.540042   1.000000
   38       -3.441200   1.000000
   39       -3.391836   1.000000
   40       -3.339970   1.000000
   41       -3.322599   1.000000
   42       -3.288191   1.000000
   43       -3.230596   1.000000
   44       -3.148018   1.000000
   45       -3.140523   1.000000
   46       -3.088810   1.000000
   47       -3.002110   1.000000
   48       -2.907470   1.000000
   49       -2.845235   1.000000
   50       -2.796154   1.000000
   51       -2.763550   1.000000
   52       -2.597926   1.000000
   53       -2.493769   1.000000
   54       -2.434739   1.000000
   55       -2.405444   1.000000
   56       -2.385663   1.000000
   57       -2.335440   1.000000
   58       -2.285180   1.000000
   59       -2.167109   1.000000
   60       -2.112943   1.000000
   61       -2.092094   1.000000
   62       -2.062669   1.000000
   63       -1.979315   1.000000
   64       -1.931750   1.000000
   65       -1.608081   1.000000
   66       -1.586662   1.000000
   67       -1.541435   1.000000
   68       -1.490620   1.000000
   69       -1.441680   1.000000
   70       -1.358461   1.000000
   71       -1.174296   1.000000
   72       -1.152747   1.000000
   73       -1.118962   1.000000
   74       -1.102921   1.000000
   75       -1.060021   1.000000
   76       -0.837344   1.000016
   77       -0.677858   1.001172
   78       -0.607584   1.004850
   79       -0.575110   1.008426
   80       -0.508361   1.020778
   81       -0.465943   1.030312
   82       -0.437918   1.034717
   83       -0.371430   1.021132
   84       -0.304188   0.932614
   85       -0.211617   0.638493
   86       -0.181686   0.513971
   87       -0.112591   0.237604
   88       -0.016727   0.007864
   89        0.011905  -0.019326
   90        0.147413  -0.021731
   91        0.179561  -0.014830
   92        0.814264  -0.000000
   93        1.046334  -0.000000
   94        1.133808  -0.000000
   95        2.374081  -0.000000
   96        2.829453  -0.000000
   97        2.966235  -0.000000
   98        3.390133  -0.000000
   99        3.596400  -0.000000
  100        3.718230  -0.000000
  101        3.938207  -0.000000
  102        4.558956  -0.000000
  103        4.981881  -0.000000
  104        5.397923   0.000000
 
  0.0000000E+00  0.4000000E+00  0.0000000E+00  0.8000000E-01
    1      -22.386909   1.000000
    2      -10.558102   1.000000
    3       -7.945410   1.000000
    4       -7.055163   1.000000
    5       -6.893274   1.000000
    6       -6.621024   1.000000
    7       -6.441824   1.000000
    8       -6.356646   1.000000
    9       -6.067592   1.000000
   10       -5.777754   1.000000
   11       -5.703291   1.000000
   12       -5.694461   1.000000
   13       -5.633666   1.000000
   14       -5.565556   1.000000
   15       -5.551402   1.000000
   16       -5.404465   1.000000
   17       -5.204964   1.000000
   18       -5.173441   1.000000
   19       -5.152997   1.000000
   20       -5.033675   1.000000
   21       -4.979077   1.000000
   22       -4.917626   1.000000
   23       -4.632393   1.000000
   24       -4.623531   1.000000
   25       -4.520343   1.000000
   26       -4.445359   1.000000
   27       -4.437452   1.000000
   28       -4.354504   1.000000
   29       -4.203641   1.000000
   30       -4.191297   1.000000
   31       -4.117980   1.000000
   32       -4.036843   1.000000
   33       -3.816339   1.000000
   34       -3.806695   1.000000
   35       -3.780529   1.000000
   36       -3.690991   1.000000
   37       -3.572064   1.000000
   38       -3.534795   1.000000
   39       -3.532947   1.000000
   40       -3.379293   1.000000
   41       -3.352504   1.000000
   42       -3.274573   1.000000
   43       -3.200276   1.000000
   44       -3.130022   1.000000
   45       -2.980195   1.000000
   46       -2.970793   1.000000
   47       -2.946078   1.000000
   48       -2.942100   1.000000
   49       -2.877024   1.000000
   50       -2.819521   1.000000
   51       -2.809577   1.000000
   52       -2.691879   1.000000
   53       -2.626318   1.000000
   54       -2.611440   1.000000