/home/zulissi/software/vasp/5.4.4_impi_cuda_patch0518_intel0818/bin/:/home/zulissi/software/vasp/5.4.4_impi_cuda_patch0518_intel0818/bin:/usr/local/cuda-9.0/samples-bin:/usr/local/cuda-9.0/bin:/opt/ohpc/pub/intel/intel18/compilers_and_libraries_2018.3.222/linux/mpi/intel64/bin_ohpc:/opt/ohpc/pub/intel/intel18/compilers_and_libraries_2018.3.222/linux/mpi/intel64/bin:/opt/ohpc/pub/intel/intel18/compilers_and_libraries_2018.3.222/linux/bin/intel64:/home/zulissi/GASpy_conda/bin:/opt/ohpc/pub/python/anaconda2/bin:/usr/lib64/qt-3.3/bin:/usr/local/bin:/usr/bin:/usr/local/sbin:/usr/sbin:/home/katsuyut/.local/bin:/home/katsuyut/bin:/home/katsuyut/.local/bin:/home/katsuyut/bin
/tmp
./run_vasp.py
/home/katsuyut/5.4.4
 running on   16 total cores
 distrk:  each k-point on   16 cores,    1 groups
 distr:  one band on    4 cores,    4 groups
 using from now: INCAR     
 vasp.5.4.4.18Apr17-6-g9f103f2a35 (build Aug 07 2018 15:16:41) complex          
  
 POSCAR found :  3 types and      18 ions
 scaLAPACK will be used

 ----------------------------------------------------------------------------- 
|                                                                             |
|  ADVICE TO THIS USER RUNNING 'VASP/VAMP'   (HEAR YOUR MASTER'S VOICE ...):  |
|                                                                             |
|      You enforced a specific xc-type in the INCAR file,                     |
|      a different type was found on the POTCAR file                          |
|          I HOPE YOU KNOW, WHAT YOU ARE  DOING                               |
|                                                                             |
 ----------------------------------------------------------------------------- 

 LDA part: xc-table for Pade appr. of Perdew
 POSCAR, INCAR and KPOINTS ok, starting setup
 FFT: planning ...
 WAVECAR not read
 entering main loop
       N       E                     dE             d eps       ncg     rms          rms(c)
DAV:   1     0.101356710439E+04    0.10136E+04   -0.60833E+04  2736   0.102E+03
DAV:   2    -0.236994818338E+02   -0.10373E+04   -0.96442E+03  3360   0.249E+02
DAV:   3    -0.103420753420E+03   -0.79721E+02   -0.73722E+02  3168   0.669E+01
DAV:   4    -0.106326816018E+03   -0.29061E+01   -0.28399E+01  3584   0.126E+01
DAV:   5    -0.106394783773E+03   -0.67968E-01   -0.67848E-01  3376   0.193E+00    0.398E+01
DAV:   6    -0.102594163567E+03    0.38006E+01   -0.32346E+01  3808   0.251E+01    0.312E+01
DAV:   7    -0.120194624446E+03   -0.17600E+02   -0.86676E+01  3800   0.523E+01    0.419E+01
DAV:   8    -0.116016828224E+03    0.41778E+01   -0.59004E+01  3552   0.450E+01    0.341E+01
DAV:   9    -0.103921958549E+03    0.12095E+02   -0.51192E+01  3448   0.375E+01    0.206E+01
DAV:  10    -0.105769030034E+03   -0.18471E+01   -0.31654E+01  3200   0.288E+01    0.237E+01
DAV:  11    -0.991740815817E+02    0.65949E+01   -0.16462E+01  3032   0.171E+01    0.659E+00
DAV:  12    -0.992247050948E+02   -0.50624E-01   -0.40115E+00  3128   0.943E+00    0.853E+00
DAV:  13    -0.988465060360E+02    0.37820E+00   -0.10852E+00  2880   0.535E+00    0.336E+00
DAV:  14    -0.988274809010E+02    0.19025E-01   -0.16594E-01  3128   0.165E+00    0.233E+00
DAV:  15    -0.987936793399E+02    0.33802E-01   -0.12938E-01  2976   0.161E+00    0.119E+00
DAV:  16    -0.987923767599E+02    0.13026E-02   -0.46156E-02  3048   0.949E-01    0.102E+00
DAV:  17    -0.987912834123E+02    0.10933E-02   -0.32066E-02  2960   0.801E-01    0.603E-01
DAV:  18    -0.987877920078E+02    0.34914E-02   -0.99870E-03  3048   0.483E-01    0.350E-01
DAV:  19    -0.987870715057E+02    0.72050E-03   -0.17541E-03  3112   0.176E-01    0.235E-01
DAV:  20    -0.987872088561E+02   -0.13735E-03   -0.21343E-03  2440   0.166E-01    0.171E-01
DAV:  21    -0.987871248027E+02    0.84053E-04   -0.24121E-04  1760   0.730E-02
   1 F= -.98787125E+02 E0= -.98780581E+02  d E =-.196301E-01
Pt_111_u2_no15_CO_n1_d9.traj, -98.78058143
