 vasp.5.4.4.18Apr17-6-g9f103f2a35 (build Aug 07 2018 15:16:41) complex          
  
 executed on             LinuxIFC date 2019.10.18  01:18:31
 running on   16 total cores
 distrk:  each k-point on   16 cores,    1 groups
 distr:  one band on NCORES_PER_BAND=   4 cores,    4 groups


--------------------------------------------------------------------------------------------------------


 INCAR:
 POTCAR:    PAW_PBE Pt 04Feb2005                  
 POTCAR:    PAW_PBE C 08Apr2002                   
 POTCAR:    PAW_PBE O 08Apr2002                   
 POTCAR:    PAW_PBE Pt 04Feb2005                  
   VRHFIN =Pt: s1d9                                                             
   LEXCH  = PE                                                                  
   EATOM  =   729.1176 eV,   53.5886 Ry                                         
                                                                                
   TITEL  = PAW_PBE Pt 04Feb2005                                                
   LULTRA =        F    use ultrasoft PP ?                                      
   IUNSCR =        1    unscreen: 0-lin 1-nonlin 2-no                           
   RPACOR =    2.330    partial core radius                                     
   POMASS =  195.080; ZVAL   =   10.000    mass and valenz                      
   RCORE  =    2.600    outmost cutoff radius                                   
   RWIGS  =    2.750; RWIGS  =    1.455    wigner-seitz radius (au A)           
   ENMAX  =  230.283; ENMIN  =  172.712 eV                                      
   ICORE  =        3    local potential                                         
   LCOR   =        T    correct aug charges                                     
   LPAW   =        T    paw PP                                                  
   EAUG   =  358.966                                                            
   DEXC   =    0.000                                                            
   RMAX   =    2.658    core radius for proj-oper                               
   RAUG   =    1.300    factor for augmentation sphere                          
   RDEP   =    2.761    radius for radial grids                                 
   RDEPT  =    2.203    core radius for aug-charge                              
                                                                                
   Atomic configuration                                                         
   16 entries                                                                   
     n  l   j            E        occ.                                          
     1  0  0.50    -78401.1885   2.0000                                         
     2  0  0.50    -13770.7750   2.0000                                         
     2  1  1.50    -11931.0468   6.0000                                         
     3  0  0.50     -3234.7234   2.0000                                         
     3  1  1.50     -2699.2216   6.0000                                         
     3  2  2.50     -2119.5714  10.0000                                         
     4  0  0.50      -695.1528   2.0000                                         
     4  1  1.50      -519.6034   6.0000                                         
     4  2  2.50      -306.6786  10.0000                                         
     4  3  3.50       -70.1041  14.0000                                         
     5  0  0.50      -101.7747   2.0000                                         
     5  1  1.50       -55.9873   6.0000                                         
     5  2  2.50        -6.1423   9.0000                                         
     6  0  0.50        -5.6573   1.0000                                         
     6  1  1.50        -6.8029   0.0000                                         
     5  3  2.50        -1.3606   0.0000                                         
   Description                                                                  
     l       E           TYP  RCUT    TYP  RCUT                                 
     2     -6.1423404     23  2.500                                             
     2     -7.5029230     23  2.500                                             
     0     -5.6573207     23  2.500                                             
     0      0.7416693     23  2.500                                             
     1     -2.7211652     23  2.600                                             
     1     20.4087390     23  2.600                                             
     3     -1.3605826     23  2.500                                             
  local pseudopotential read in
  partial core-charges read in
  partial kinetic energy density read in
  atomic valenz-charges read in
  non local Contribution for L=           2  read in
    real space projection operators read in
  non local Contribution for L=           2  read in
    real space projection operators read in
  non local Contribution for L=           0  read in
    real space projection operators read in
  non local Contribution for L=           0  read in
    real space projection operators read in
  non local Contribution for L=           1  read in
    real space projection operators read in
  non local Contribution for L=           1  read in
    real space projection operators read in
    PAW grid and wavefunctions read in
 
   number of l-projection  operators is LMAX  =           6
   number of lm-projection operators is LMMAX =          18
 
 POTCAR:    PAW_PBE C 08Apr2002                   
   VRHFIN =C: s2p2                                                              
   LEXCH  = PE                                                                  
   EATOM  =   147.1560 eV,   10.8157 Ry                                         
                                                                                
   TITEL  = PAW_PBE C 08Apr2002                                                 
   LULTRA =        F    use ultrasoft PP ?                                      
   IUNSCR =        1    unscreen: 0-lin 1-nonlin 2-no                           
   RPACOR =    1.200    partial core radius                                     
   POMASS =   12.011; ZVAL   =    4.000    mass and valenz                      
   RCORE  =    1.500    outmost cutoff radius                                   
   RWIGS  =    1.630; RWIGS  =    0.863    wigner-seitz radius (au A)           
   ENMAX  =  400.000; ENMIN  =  300.000 eV                                      
   ICORE  =        2    local potential                                         
   LCOR   =        T    correct aug charges                                     
   LPAW   =        T    paw PP                                                  
   EAUG   =  644.873                                                            
   DEXC   =    0.000                                                            
   RMAX   =    1.529    core radius for proj-oper                               
   RAUG   =    1.300    factor for augmentation sphere                          
   RDEP   =    1.501    radius for radial grids                                 
   RDEPT  =    1.300    core radius for aug-charge                              
                                                                                
   Atomic configuration                                                         
    4 entries                                                                   
     n  l   j            E        occ.                                          
     1  0  0.50      -273.3789   2.0000                                         
     2  0  0.50       -13.7508   2.0000                                         
     2  1  0.50        -5.2854   2.0000                                         
     3  2  1.50        -5.4423   0.0000                                         
   Description                                                                  
     l       E           TYP  RCUT    TYP  RCUT                                 
     0    -13.7508458     23  1.200                                             
     0     -8.2022199     23  1.200                                             
     1     -5.2854383     23  1.500                                             
     1     34.0145650     23  1.500                                             
     2     -5.4423304      7  1.500                                             
  local pseudopotential read in
  partial core-charges read in
  partial kinetic energy density read in
  atomic valenz-charges read in
  non local Contribution for L=           0  read in
    real space projection operators read in
  non local Contribution for L=           0  read in
    real space projection operators read in
  non local Contribution for L=           1  read in
    real space projection operators read in
  non local Contribution for L=           1  read in
    real space projection operators read in
    PAW grid and wavefunctions read in
 
   number of l-projection  operators is LMAX  =           4
   number of lm-projection operators is LMMAX =           8
 
 POTCAR:    PAW_PBE O 08Apr2002                   
   VRHFIN =O: s2p4                                                              
   LEXCH  = PE                                                                  
   EATOM  =   432.3788 eV,   31.7789 Ry                                         
                                                                                
   TITEL  = PAW_PBE O 08Apr2002                                                 
   LULTRA =        F    use ultrasoft PP ?                                      
   IUNSCR =        1    unscreen: 0-lin 1-nonlin 2-no                           
   RPACOR =    1.200    partial core radius                                     
   POMASS =   16.000; ZVAL   =    6.000    mass and valenz                      
   RCORE  =    1.520    outmost cutoff radius                                   
   RWIGS  =    1.550; RWIGS  =    0.820    wigner-seitz radius (au A)           
   ENMAX  =  400.000; ENMIN  =  300.000 eV                                      
   ICORE  =        2    local potential                                         
   LCOR   =        T    correct aug charges                                     
   LPAW   =        T    paw PP                                                  
   EAUG   =  605.392                                                            
   DEXC   =    0.000                                                            
   RMAX   =    1.553    core radius for proj-oper                               
   RAUG   =    1.300    factor for augmentation sphere                          
   RDEP   =    1.550    radius for radial grids                                 
   RDEPT  =    1.329    core radius for aug-charge                              
                                                                                
   Atomic configuration                                                         
    4 entries                                                                   
     n  l   j            E        occ.                                          
     1  0  0.50      -514.6923   2.0000                                         
     2  0  0.50       -23.9615   2.0000                                         
     2  1  0.50        -9.0305   4.0000                                         
     3  2  1.50        -9.5241   0.0000                                         
   Description                                                                  
     l       E           TYP  RCUT    TYP  RCUT                                 
     0    -23.9615318     23  1.200                                             
     0     -9.5240782     23  1.200                                             
     1     -9.0304911     23  1.520                                             
     1      8.1634956     23  1.520                                             
     2     -9.5240782      7  1.500                                             
  local pseudopotential read in
  partial core-charges read in
  partial kinetic energy density read in
  kinetic energy density of atom read in
  atomic valenz-charges read in
  non local Contribution for L=           0  read in
    real space projection operators read in
  non local Contribution for L=           0  read in
    real space projection operators read in
  non local Contribution for L=           1  read in
    real space projection operators read in
  non local Contribution for L=           1  read in
    real space projection operators read in
    PAW grid and wavefunctions read in
 
   number of l-projection  operators is LMAX  =           4
   number of lm-projection operators is LMMAX =           8
 
 Optimization of the real space projectors (new method)

 maximal supplied QI-value         = 14.36
 optimisation between [QCUT,QGAM] = [  9.48, 19.10] = [ 25.16,102.17] Ry 
 Optimized for a Real-space Cutoff    1.57 Angstroem

   l    n(q)    QCUT    max X(q) W(low)/X(q) W(high)/X(q)  e(spline) 
   2      8     9.479    66.195    0.35E-03    0.53E-04    0.87E-07
   2      8     9.479    64.643    0.35E-03    0.57E-04    0.91E-07
   0      9     9.479    95.520    0.50E-04    0.62E-04    0.81E-07
   0      9     9.479    63.403    0.49E-04    0.60E-04    0.78E-07
   1      8     9.479    19.961    0.10E-03    0.87E-04    0.11E-06
   1      8     9.479    13.289    0.88E-04    0.71E-04    0.97E-07
 Optimization of the real space projectors (new method)

 maximal supplied QI-value         = 25.13
 optimisation between [QCUT,QGAM] = [  9.55, 19.10] = [ 25.54,102.17] Ry 
 Optimized for a Real-space Cutoff    1.39 Angstroem

   l    n(q)    QCUT    max X(q) W(low)/X(q) W(high)/X(q)  e(spline) 
   0      8     9.551   115.676    0.39E-03    0.54E-03    0.29E-06
   0      8     9.551    87.132    0.39E-03    0.54E-03    0.28E-06
   1      7     9.551     4.429    0.35E-03    0.51E-04    0.29E-06
   1      7     9.551     2.733    0.22E-03    0.42E-04    0.31E-06
 Optimization of the real space projectors (new method)

 maximal supplied QI-value         = 24.76
 optimisation between [QCUT,QGAM] = [  9.41, 19.06] = [ 24.78,101.75] Ry 
 Optimized for a Real-space Cutoff    1.48 Angstroem

   l    n(q)    QCUT    max X(q) W(low)/X(q) W(high)/X(q)  e(spline) 
   0      8     9.407    20.381    0.17E-03    0.13E-03    0.41E-06
   0      8     9.407    15.268    0.19E-03    0.15E-03    0.42E-06
   1      8     9.407     5.946    0.36E-03    0.29E-03    0.38E-06
   1      8     9.407     5.382    0.31E-03    0.24E-03    0.34E-06

 ----------------------------------------------------------------------------- 
|                                                                             |
|  ADVICE TO THIS USER RUNNING 'VASP/VAMP'   (HEAR YOUR MASTER'S VOICE ...):  |
|                                                                             |
|      You enforced a specific xc-type in the INCAR file,                     |
|      a different type was found on the POTCAR file                          |
|          I HOPE YOU KNOW, WHAT YOU ARE  DOING                               |
|                                                                             |
 ----------------------------------------------------------------------------- 

  PAW_PBE Pt 04Feb2005                  :
 energy of atom  1       EATOM= -729.1176
 kinetic energy error for atom=    0.0144 (will be added to EATOM!!)
  PAW_PBE C 08Apr2002                   :
 energy of atom  2       EATOM= -147.1560
 kinetic energy error for atom=    0.0854 (will be added to EATOM!!)
  PAW_PBE O 08Apr2002                   :
 energy of atom  3       EATOM= -432.3788
 kinetic energy error for atom=    0.3782 (will be added to EATOM!!)
 
 
 POSCAR: Pt  C  O                                
  positions in cartesian coordinates
  No initial velocities read in
 exchange correlation table for  LEXCH =        9
   RHO(1)=    0.500       N(1)  =     2000
   RHO(2)=  100.500       N(2)  =     4000
 


--------------------------------------------------------------------------------------------------------


 ion  position               nearest neighbor table
   1  0.000  0.000  0.372-   5 2.82   6 2.82   7 2.82   3 2.82   3 2.82   4 2.82   4 2.82   2 2.82
                             2 2.82
   2  0.500  0.000  0.372-   6 2.82   5 2.82   8 2.82   4 2.82   3 2.82   4 2.82   3 2.82   1 2.82
                             1 2.82
   3  0.000  0.500  0.372-   7 2.82   5 2.82   8 2.82   1 2.82   1 2.82   2 2.82   2 2.82   4 2.82
                             4 2.82
   4  0.500  0.500  0.372-   8 2.82   7 2.82   6 2.82   2 2.82   1 2.82   2 2.82   1 2.82   3 2.82
                             3 2.82
   5  0.167  0.167  0.457-  10 2.81   9 2.81  12 2.81   1 2.82   3 2.82   2 2.82   7 2.82   7 2.82
                             8 2.82   8 2.82   6 2.82   6 2.82
   6  0.667  0.167  0.457-   9 2.82  10 2.82   2 2.82   1 2.82   4 2.82   8 2.82   7 2.82   8 2.82
                             7 2.82   5 2.82   5 2.82  11 2.87
   7  0.167  0.667  0.457-  10 2.82  12 2.82   3 2.82   1 2.82   4 2.82   5 2.82   5 2.82   6 2.82
                             6 2.82   8 2.82   8 2.82  11 2.87
   8  0.667  0.667  0.457-   9 2.82  12 2.82   4 2.82   3 2.82   2 2.82   6 2.82   5 2.82   6 2.82
                             5 2.82   7 2.82   7 2.82  11 2.87
   9  0.835  0.332  0.542-  16 2.79  10 2.81  12 2.81   5 2.81   6 2.82   8 2.82  11 2.82  11 2.82
                            12 2.84  10 2.84  15 2.93  13 2.93
  10  0.332  0.332  0.542-  16 2.79  12 2.81   9 2.81   5 2.81   6 2.82   7 2.82  11 2.82  11 2.82
                             9 2.84  12 2.84  15 2.93  14 2.93
  11  0.833  0.833  0.545-  12 2.82   9 2.82  10 2.82  10 2.82   9 2.82  12 2.82  15 2.87  14 2.87
                            13 2.87   8 2.87   7 2.87   6 2.87
  12  0.332  0.835  0.542-  16 2.79  10 2.81   9 2.81   5 2.81   7 2.82   8 2.82  11 2.82  11 2.82
                             9 2.84  10 2.84  14 2.93  13 2.93
  13  0.998  0.998  0.633-  17 2.12  15 2.79  14 2.79  16 2.83  16 2.83  14 2.85  15 2.85  11 2.87
                            12 2.93   9 2.93
  14  0.504  0.998  0.633-  17 2.12  15 2.79  13 2.79  16 2.83  16 2.83  13 2.85  15 2.85  11 2.87
                            12 2.93  10 2.93
  15  0.998  0.504  0.633-  17 2.12  14 2.79  13 2.79  16 2.83  16 2.83  13 2.85  14 2.85  11 2.87
                            10 2.93   9 2.93
  16  0.500  0.500  0.626-   9 2.79  12 2.79  10 2.79  15 2.83  13 2.83  14 2.83  14 2.83  13 2.83
                            15 2.83
  17  0.167  0.167  0.683-  18 1.20  14 2.12  15 2.12  13 2.12
  18  0.167  0.167  0.727-  17 1.20
 

IMPORTANT INFORMATION: All symmetrisations will be switched off!
NOSYMM: (Re-)initialisation of all symmetry stuff for point group C_1.

 
 
 KPOINTS: KPOINTS created by Atomic Simulation Env

Automatic generation of k-mesh.
Space group operators:
 irot       det(A)        alpha          n_x          n_y          n_z        tau_x        tau_y        tau_z
    1     1.000000     0.000000     1.000000     0.000000     0.000000     0.000000     0.000000     0.000000
 
 Subroutine IBZKPT returns following result:
 ===========================================
 
 Found     13 irreducible k-points:
 
 Following reciprocal coordinates:
            Coordinates               Weight
  0.000000  0.000000  0.000000      1.000000
  0.200000  0.000000  0.000000      2.000000
  0.400000  0.000000  0.000000      2.000000
  0.000000  0.200000  0.000000      2.000000
  0.200000  0.200000  0.000000      2.000000
  0.400000  0.200000  0.000000      2.000000
 -0.400000  0.200000  0.000000      2.000000
 -0.200000  0.200000  0.000000      2.000000
  0.000000  0.400000  0.000000      2.000000
  0.200000  0.400000  0.000000      2.000000
  0.400000  0.400000  0.000000      2.000000
 -0.400000  0.400000  0.000000      2.000000
 -0.200000  0.400000  0.000000      2.000000
 
 Following cartesian coordinates:
            Coordinates               Weight
  0.000000  0.000000  0.000000      1.000000
  0.035437 -0.020459  0.000000      2.000000
  0.070874 -0.040919  0.000000      2.000000
  0.000000  0.040919  0.000000      2.000000
  0.035437  0.020459  0.000000      2.000000
  0.070874  0.000000  0.000000      2.000000
 -0.070874  0.081838  0.000000      2.000000
 -0.035437  0.061378  0.000000      2.000000
  0.000000  0.081838  0.000000      2.000000
  0.035437  0.061378  0.000000      2.000000
  0.070874  0.040919  0.000000      2.000000
 -0.070874  0.122757  0.000000      2.000000
 -0.035437  0.102297  0.000000      2.000000
 


--------------------------------------------------------------------------------------------------------




 Dimension of arrays:
   k-points           NKPTS =     13   k-points in BZ     NKDIM =     13   number of bands    NBANDS=    104
   number of dos      NEDOS =    301   number of ions     NIONS =     18
   non local maximal  LDIM  =      6   non local SUM 2l+1 LMDIM =     18
   total plane-waves  NPLWV =  98784
   max r-space proj   IRMAX =   2189   max aug-charges    IRDMAX=   8258
   dimension x,y,z NGX =    28 NGY =   28 NGZ =  126
   dimension x,y,z NGXF=    56 NGYF=   56 NGZF=  252
   support grid    NGXF=    56 NGYF=   56 NGZF=  252
   ions per type =              16   1   1
   NGX,Y,Z   is equivalent  to a cutoff of   8.25,  8.25,  7.78 a.u.
   NGXF,Y,Z  is equivalent  to a cutoff of  16.50, 16.50, 15.57 a.u.

 SYSTEM =  unknown system                          
 POSCAR =  Pt  C  O                                

 Startparameter for this run:
   NWRITE =      2    write-flag & timer
   PREC   = normal    normal or accurate (medium, high low for compatibility)
   ISTART =      0    job   : 0-new  1-cont  2-samecut
   ICHARG =      2    charge: 1-file 2-atom 10-const
   ISPIN  =      1    spin polarized calculation?
   LNONCOLLINEAR =      F non collinear calculations
   LSORBIT =      F    spin-orbit coupling
   INIWAV =      1    electr: 0-lowe 1-rand  2-diag
   LASPH  =      F    aspherical Exc in radial PAW
   METAGGA=      F    non-selfconsistent MetaGGA calc.

 Electronic Relaxation 1
   ENCUT  =  350.0 eV  25.72 Ry    5.07 a.u.   8.61  8.61 41.05*2*pi/ulx,y,z
   ENINI  =  350.0     initial cutoff
   ENAUG  =  644.9 eV  augmentation charge cutoff
   NELM   =     60;   NELMIN=  2; NELMDL= -5     # of ELM steps 
   EDIFF  = 0.1E-03   stopping-criterion for ELM
   LREAL  =      T    real-space projection
   NLSPLINE    = F    spline interpolate recip. space projectors
   LCOMPAT=      F    compatible to vasp.4.4
   GGA_COMPAT  = T    GGA compatible to vasp.4.4-vasp.4.6
   LMAXPAW     = -100 max onsite density
   LMAXMIX     =    2 max onsite mixed and CHGCAR
   VOSKOWN=      0    Vosko Wilk Nusair interpolation
   ROPT   =   -0.00050  -0.00050  -0.00050
 Ionic relaxation
   EDIFFG = -.3E-01   stopping-criterion for IOM
   NSW    =      0    number of steps for IOM
   NBLOCK =      1;   KBLOCK =      1    inner block; outer block 
   IBRION =     -1    ionic relax: 0-MD 1-quasi-New 2-CG
   NFREE  =      1    steps in history (QN), initial steepest desc. (CG)
   ISIF   =      0    stress and relaxation
   IWAVPR =     10    prediction:  0-non 1-charg 2-wave 3-comb
   ISYM   =      0    0-nonsym 1-usesym 2-fastsym
   LCORR  =      T    Harris-Foulkes like correction to forces

   POTIM  = 0.5000    time-step for ionic-motion
   TEIN   =    0.0    initial temperature
   TEBEG  =    0.0;   TEEND  =   0.0 temperature during run
   SMASS  =  -3.00    Nose mass-parameter (am)
   estimated Nose-frequenzy (Omega)   =  0.10E-29 period in steps =****** mass=  -0.728E-27a.u.
   SCALEE = 1.0000    scale energy and forces
   NPACO  =    256;   APACO  = 16.0  distance and # of slots for P.C.
   PSTRESS=    0.0 pullay stress

  Mass of Ions in am
   POMASS = 195.08 12.01 16.00
  Ionic Valenz
   ZVAL   =  10.00  4.00  6.00
  Atomic Wigner-Seitz radii
   RWIGS  =   1.50  0.80  0.80
  virtual crystal weights 
   VCA    =   1.00  1.00  1.00
   NELECT =     170.0000    total number of electrons
   NUPDOWN=      -1.0000    fix difference up-down

 DOS related values:
   EMIN   =  10.00;   EMAX   =-10.00  energy-range for DOS
   EFERMI =   0.00
   ISMEAR =     1;   SIGMA  =   0.20  broadening in eV -4-tet -1-fermi 0-gaus

 Electronic relaxation 2 (details)
   IALGO  =     38    algorithm
   LDIAG  =      T    sub-space diagonalisation (order eigenvalues)
   LSUBROT=      F    optimize rotation matrix (better conditioning)
   TURBO    =      0    0=normal 1=particle mesh
   IRESTART =      0    0=no restart 2=restart with 2 vectors
   NREBOOT  =      0    no. of reboots
   NMIN     =      0    reboot dimension
   EREF     =   0.00    reference energy to select bands
   IMIX   =      4    mixing-type and parameters
     AMIX     =   0.40;   BMIX     =  1.00
     AMIX_MAG =   1.60;   BMIX_MAG =  1.00
     AMIN     =   0.10
     WC   =   100.;   INIMIX=   1;  MIXPRE=   1;  MAXMIX= -45

 Intra band minimization:
   WEIMIN = 0.0000     energy-eigenvalue tresh-hold
   EBREAK =  0.24E-06  absolut break condition
   DEPER  =   0.30     relativ break condition  

   TIME   =   0.40     timestep for ELM

  volume/ion in A,a.u.               =      41.24       278.33
  Fermi-wavevector in a.u.,A,eV,Ry     =   1.001569  1.892691 13.648550  1.003140
  Thomas-Fermi vector in A             =   2.133999
 
 Write flags
   LWAVE        =      F    write WAVECAR
   LDOWNSAMPLE  =      F    k-point downsampling of WAVECAR
   LCHARG       =      F    write CHGCAR
   LVTOT        =      F    write LOCPOT, total local potential
   LVHAR        =      F    write LOCPOT, Hartree potential only
   LELF         =      F    write electronic localiz. function (ELF)
   LORBIT       =      0    0 simple, 1 ext, 2 COOP (PROOUT), +10 PAW based schemes


 Dipole corrections
   LMONO  =      F    monopole corrections only (constant potential shift)
   LDIPOL =      F    correct potential (dipole corrections)
   IDIPOL =      0    1-x, 2-y, 3-z, 4-all directions 
   EPSILON=  1.0000000 bulk dielectric constant

 Exchange correlation treatment:
   GGA     =    RP    GGA type
   LEXCH   =     9    internal setting for exchange type
   VOSKOWN=      0    Vosko Wilk Nusair interpolation
   LHFCALC =     F    Hartree Fock is set to
   LHFONE  =     F    Hartree Fock one center treatment
   AEXX    =    0.0000 exact exchange contribution

 Linear response parameters
   LEPSILON=     F    determine dielectric tensor
   LRPA    =     F    only Hartree local field effects (RPA)
   LNABLA  =     F    use nabla operator in PAW spheres
   LVEL    =     F    velocity operator in full k-point grid
   LINTERFAST=   F  fast interpolation
   KINTER  =     0    interpolate to denser k-point grid
   CSHIFT  =0.1000    complex shift for real part using Kramers Kronig
   OMEGAMAX=  -1.0    maximum frequency
   DEG_THRESHOLD= 0.2000000E-02 threshold for treating states as degnerate
   RTIME   =   -0.100 relaxation time in fs
  (WPLASMAI=    0.000 imaginary part of plasma frequency in eV, 0.658/RTIME)
   DFIELD  = 0.0000000 0.0000000 0.0000000 field for delta impulse in time
 
 Orbital magnetization related:
   ORBITALMAG=     F  switch on orbital magnetization
   LCHIMAG   =     F  perturbation theory with respect to B field
   DQ        =  0.001000  dq finite difference perturbation B field
   LLRAUG    =     F  two centre corrections for induced B field



--------------------------------------------------------------------------------------------------------


 Static calculation
 charge density and potential will be updated during run
 non-spin polarized calculation
 Variant of blocked Davidson
 Davidson routine will perform the subspace rotation
 perform sub-space diagonalisation
    after iterative eigenvector-optimisation
 modified Broyden-mixing scheme, WC =      100.0
 initial mixing is a Kerker type mixing with AMIX =  0.4000 and BMIX =      1.0000
 Hartree-type preconditioning will be used
 using additional bands           19
 real space projection scheme for non local part
 use partial core corrections
 calculate Harris-corrections to forces 
   (improved forces if not selfconsistent)
 use gradient corrections 
 use of overlap-Matrix (Vanderbilt PP)
 Methfessel and Paxton  Order N= 1 SIGMA  =   0.20


--------------------------------------------------------------------------------------------------------


  energy-cutoff  :      350.00
  volume of cell :      742.39
      direct lattice vectors                 reciprocal lattice vectors
     5.643844236  0.000000000  0.000000000     0.177184195 -0.102297343  0.000000000
     2.821922118  4.887712483  0.000000000     0.000000000  0.204594686  0.000000000
     0.000000000  0.000000000 26.912269283     0.000000000  0.000000000  0.037157773

  length of vectors
     5.643844236  5.643844236 26.912269283     0.204594686  0.204594686  0.037157773


 
 k-points in units of 2pi/SCALE and weight: KPOINTS created by Atomic Simulation Env
   0.00000000  0.00000000  0.00000000       0.040
   0.03543684 -0.02045947  0.00000000       0.080
   0.07087368 -0.04091894  0.00000000       0.080
   0.00000000  0.04091894  0.00000000       0.080
   0.03543684  0.02045947  0.00000000       0.080
   0.07087368  0.00000000  0.00000000       0.080
  -0.07087368  0.08183787  0.00000000       0.080
  -0.03543684  0.06137841  0.00000000       0.080
   0.00000000  0.08183787  0.00000000       0.080
   0.03543684  0.06137841  0.00000000       0.080
   0.07087368  0.04091894  0.00000000       0.080
  -0.07087368  0.12275681  0.00000000       0.080
  -0.03543684  0.10229734  0.00000000       0.080
 
 k-points in reciprocal lattice and weights: KPOINTS created by Atomic Simulation Env
   0.00000000  0.00000000  0.00000000       0.040
   0.20000000  0.00000000  0.00000000       0.080
   0.40000000  0.00000000  0.00000000       0.080
   0.00000000  0.20000000  0.00000000       0.080
   0.20000000  0.20000000  0.00000000       0.080
   0.40000000  0.20000000  0.00000000       0.080
  -0.40000000  0.20000000  0.00000000       0.080
  -0.20000000  0.20000000  0.00000000       0.080
   0.00000000  0.40000000  0.00000000       0.080
   0.20000000  0.40000000  0.00000000       0.080
   0.40000000  0.40000000  0.00000000       0.080
  -0.40000000  0.40000000  0.00000000       0.080
  -0.20000000  0.40000000  0.00000000       0.080
 
 position of ions in fractional coordinates (direct lattice) 
   0.00000000  0.00000000  0.37157773
   0.50000000  0.00000000  0.37157773
   0.00000000  0.50000000  0.37157773
   0.50000000  0.50000000  0.37157773
   0.16666667  0.16666667  0.45719258
   0.66666667  0.16666667  0.45719258
   0.16666667  0.66666667  0.45719258
   0.66666667  0.66666667  0.45719258
   0.83510680  0.33244268  0.54239142
   0.33244078  0.33244030  0.54239050
   0.83333274  0.83333145  0.54479985
   0.33244169  0.83510930  0.54239216
   0.99809105  0.99807997  0.63285309
   0.50384637  0.99807599  0.63284932
   0.99808606  0.50383728  0.63284713
   0.50000028  0.49999648  0.62647687
   0.16668159  0.16668135  0.68250734
   0.16670316  0.16670136  0.72709028
 
 position of ions in cartesian coordinates  (Angst):
   0.00000000  0.00000000 10.00000000
   2.82192212  0.00000000 10.00000000
   1.41096106  2.44385624 10.00000000
   4.23288318  2.44385624 10.00000000
   1.41096106  0.81461875 12.30408976
   4.23288318  0.81461875 12.30408976
   2.82192212  3.25847499 12.30408976
   5.64384424  3.25847499 12.30408976
   5.65134004  1.62488422 14.59698387
   2.81436462  1.62487258 14.59695913
   7.05479666  4.07308454 14.66180027
   4.23286252  4.08177415 14.59700383
   8.44957436  4.87832792 17.03151273
   5.66012312  4.87830847 17.03141137
   7.05483184  2.46261175 17.03135248
   4.23287480  2.44383903 16.85991415
   1.41108674  0.81469054 18.36782138
   1.41126494  0.81478834 19.56764954
 


--------------------------------------------------------------------------------------------------------


 k-point  1 :   0.0000 0.0000 0.0000  plane waves:   11069
 k-point  2 :   0.2000 0.0000 0.0000  plane waves:   11057
 k-point  3 :   0.4000 0.0000 0.0000  plane waves:   11035
 k-point  4 :   0.0000 0.2000 0.0000  plane waves:   11057
 k-point  5 :   0.2000 0.2000 0.0000  plane waves:   11057
 k-point  6 :   0.4000 0.2000 0.0000  plane waves:   11021
 k-point  7 :  -0.4000 0.2000 0.0000  plane waves:   11028
 k-point  8 :  -0.2000 0.2000 0.0000  plane waves:   11021
 k-point  9 :   0.0000 0.4000 0.0000  plane waves:   11035
 k-point 10 :   0.2000 0.4000 0.0000  plane waves:   11021
 k-point 11 :   0.4000 0.4000 0.0000  plane waves:   11035
 k-point 12 :  -0.4000 0.4000 0.0000  plane waves:   11028
 k-point 13 :  -0.2000 0.4000 0.0000  plane waves:   11028

 maximum and minimum number of plane-waves per node :      2799     2729

 maximum number of plane-waves:     11069
 maximum index in each direction: 
   IXMAX=    9   IYMAX=    8   IZMAX=   41
   IXMIN=   -9   IYMIN=   -9   IZMIN=  -41


 real space projection operators:
  total allocation   :       4900.92 KBytes
  max/ min on nodes  :       1231.09       1220.62


 parallel 3D FFT for wavefunctions:
    minimum data exchange during FFTs selected (reduces bandwidth)
 parallel 3D FFT for charge:
    minimum data exchange during FFTs selected (reduces bandwidth)


 total amount of memory used by VASP MPI-rank0    54955. kBytes
=======================================================================

   base      :      30000. kBytes
   nonlr-proj:       2172. kBytes
   fftplans  :       2593. kBytes
   grid      :       4625. kBytes
   one-center:         77. kBytes
   wavefun   :      15488. kBytes
 
     INWAV:  cpu time    0.0000: real time    0.0002
 Broyden mixing: mesh for mixing (old mesh)
   NGX = 17   NGY = 17   NGZ = 83
  (NGX  = 56   NGY  = 56   NGZ  =252)
  gives a total of  23987 points

 initial charge density was supplied:
 charge density of overlapping atoms calculated
 number of electron     170.0000000 magnetization 
 keeping initial charge density in first step


--------------------------------------------------------------------------------------------------------


 Maximum index for non-local projection operator          528
 Maximum index for augmentation-charges          706 (set IRDMAX)


--------------------------------------------------------------------------------------------------------


 First call to EWALD:  gamma=   0.196
 Maximum number of real-space cells 5x 5x 1
 Maximum number of reciprocal cells 2x 2x 7

    FEWALD:  cpu time    0.0022: real time    0.0022


--------------------------------------- Iteration      1(   1)  ---------------------------------------


    POTLOK:  cpu time    0.0410: real time    0.0448
    SETDIJ:  cpu time    0.0077: real time    0.0107
     EDDAV:  cpu time    3.1613: real time    3.1805
       DOS:  cpu time    0.0021: real time    0.0041
    --------------------------------------------
      LOOP:  cpu time    3.2122: real time    3.2402

 eigenvalue-minimisations  :  2736
 total energy-change (2. order) : 0.1013567E+04  (-0.6083325E+04)
 number of electron     170.0000000 magnetization 
 augmentation part      170.0000000 magnetization 

 Free energy of the ion-electron system (eV)
  ---------------------------------------------------
  alpha Z        PSCENC =       358.28533891
  Ewald energy   TEWEN  =     72120.92943230
  -Hartree energ DENC   =    -84879.10688227
  -exchange      EXHF   =         0.00000000
  -V(xc)+E(xc)   XCENC  =        88.27677331
  PAW double counting   =     11602.90403888   -11137.02028253
  entropy T*S    EENTRO =        -0.00354139
  eigenvalues    EBANDS =       627.22655473
  atomic energy  EATOM  =     12232.07567246
  Solvation  Ediel_sol  =         0.00000000
  ---------------------------------------------------
  free energy    TOTEN  =      1013.56710439 eV

  energy without entropy =     1013.57064578  energy(sigma->0) =     1013.56828485


--------------------------------------------------------------------------------------------------------




--------------------------------------- Iteration      1(   2)  ---------------------------------------


     EDDAV:  cpu time    3.7128: real time    3.7150
       DOS:  cpu time    0.0021: real time    0.0032
    --------------------------------------------
      LOOP:  cpu time    3.7148: real time    3.7182

 eigenvalue-minimisations  :  3360
 total energy-change (2. order) :-0.1037267E+04  (-0.9644159E+03)
 number of electron     170.0000000 magnetization 
 augmentation part      170.0000000 magnetization 

 Free energy of the ion-electron system (eV)
  ---------------------------------------------------
  alpha Z        PSCENC =       358.28533891
  Ewald energy   TEWEN  =     72120.92943230
  -Hartree energ DENC   =    -84879.10688227
  -exchange      EXHF   =         0.00000000
  -V(xc)+E(xc)   XCENC  =        88.27677331
  PAW double counting   =     11602.90403888   -11137.02028253
  entropy T*S    EENTRO =         0.00503132
  eigenvalues    EBANDS =      -410.04860420
  atomic energy  EATOM  =     12232.07567246
  Solvation  Ediel_sol  =         0.00000000
  ---------------------------------------------------
  free energy    TOTEN  =       -23.69948183 eV

  energy without entropy =      -23.70451315  energy(sigma->0) =      -23.70115894


--------------------------------------------------------------------------------------------------------




--------------------------------------- Iteration      1(   3)  ---------------------------------------


     EDDAV:  cpu time    3.5327: real time    3.5343
       DOS:  cpu time    0.0023: real time    0.0023
    --------------------------------------------
      LOOP:  cpu time    3.5350: real time    3.5366

 eigenvalue-minimisations  :  3168
 total energy-change (2. order) :-0.7972127E+02  (-0.7372156E+02)
 number of electron     170.0000000 magnetization 
 augmentation part      170.0000000 magnetization 

 Free energy of the ion-electron system (eV)
  ---------------------------------------------------
  alpha Z        PSCENC =       358.28533891
  Ewald energy   TEWEN  =     72120.92943230
  -Hartree energ DENC   =    -84879.10688227
  -exchange      EXHF   =         0.00000000
  -V(xc)+E(xc)   XCENC  =        88.27677331
  PAW double counting   =     11602.90403888   -11137.02028253
  entropy T*S    EENTRO =        -0.02940277
  eigenvalues    EBANDS =      -489.73544170
  atomic energy  EATOM  =     12232.07567246
  Solvation  Ediel_sol  =         0.00000000
  ---------------------------------------------------
  free energy    TOTEN  =      -103.42075342 eV

  energy without entropy =     -103.39135065  energy(sigma->0) =     -103.41095250


--------------------------------------------------------------------------------------------------------




--------------------------------------- Iteration      1(   4)  ---------------------------------------


     EDDAV:  cpu time    3.9038: real time    3.9047
       DOS:  cpu time    0.0020: real time    0.0031
    --------------------------------------------
      LOOP:  cpu time    3.9058: real time    3.9078

 eigenvalue-minimisations  :  3584
 total energy-change (2. order) :-0.2906063E+01  (-0.2839936E+01)
 number of electron     170.0000000 magnetization 
 augmentation part      170.0000000 magnetization 

 Free energy of the ion-electron system (eV)
  ---------------------------------------------------
  alpha Z        PSCENC =       358.28533891
  Ewald energy   TEWEN  =     72120.92943230
  -Hartree energ DENC   =    -84879.10688227
  -exchange      EXHF   =         0.00000000
  -V(xc)+E(xc)   XCENC  =        88.27677331
  PAW double counting   =     11602.90403888   -11137.02028253
  entropy T*S    EENTRO =        -0.03420326
  eigenvalues    EBANDS =      -492.63670380
  atomic energy  EATOM  =     12232.07567246
  Solvation  Ediel_sol  =         0.00000000
  ---------------------------------------------------
  free energy    TOTEN  =      -106.32681602 eV

  energy without entropy =     -106.29261275  energy(sigma->0) =     -106.31541493


--------------------------------------------------------------------------------------------------------




--------------------------------------- Iteration      1(   5)  ---------------------------------------


     EDDAV:  cpu time    3.9241: real time    3.9242
       DOS:  cpu time    0.0020: real time    0.0033
    CHARGE:  cpu time    0.2393: real time    0.2394
    MIXING:  cpu time    0.0029: real time    0.0043
    --------------------------------------------
      LOOP:  cpu time    4.1683: real time    4.1712

 eigenvalue-minimisations  :  3376
 total energy-change (2. order) :-0.6796776E-01  (-0.6784836E-01)
 number of electron     169.9999887 magnetization 
 augmentation part       47.3963358 magnetization 

 Broyden mixing:
  rms(total) = 0.39792E+01    rms(broyden)= 0.39787E+01
  rms(prec ) = 0.40468E+01
  weight for this iteration     100.00

 Free energy of the ion-electron system (eV)
  ---------------------------------------------------
  alpha Z        PSCENC =       358.28533891
  Ewald energy   TEWEN  =     72120.92943230
  -Hartree energ DENC   =    -84879.10688227
  -exchange      EXHF   =         0.00000000
  -V(xc)+E(xc)   XCENC  =        88.27677331
  PAW double counting   =     11602.90403888   -11137.02028253
  entropy T*S    EENTRO =        -0.03421181
  eigenvalues    EBANDS =      -492.70466301
  atomic energy  EATOM  =     12232.07567246
  Solvation  Ediel_sol  =         0.00000000
  ---------------------------------------------------
  free energy    TOTEN  =      -106.39478377 eV

  energy without entropy =     -106.36057196  energy(sigma->0) =     -106.38337984


--------------------------------------------------------------------------------------------------------




--------------------------------------- Iteration      1(   6)  ---------------------------------------


    POTLOK:  cpu time    0.0431: real time    0.0437
    SETDIJ:  cpu time    0.0071: real time    0.0071
     EDDAV:  cpu time    4.0086: real time    4.0106
       DOS:  cpu time    0.0022: real time    0.0034
    CHARGE:  cpu time    0.2034: real time    0.2037
    MIXING:  cpu time    0.0015: real time    0.0015
    --------------------------------------------
      LOOP:  cpu time    4.2658: real time    4.2700

 eigenvalue-minimisations  :  3808
 total energy-change (2. order) : 0.3800620E+01  (-0.3234551E+01)
 number of electron     169.9999920 magnetization 
 augmentation part       50.5819454 magnetization 

 Broyden mixing:
  rms(total) = 0.31164E+01    rms(broyden)= 0.31152E+01
  rms(prec ) = 0.33619E+01
  weight for this iteration     100.00

 eigenvalues of (default mixing * dielectric matrix)
  average eigenvalue GAMMA=   0.9326
  0.9326

 Free energy of the ion-electron system (eV)
  ---------------------------------------------------
  alpha Z        PSCENC =       358.28533891
  Ewald energy   TEWEN  =     72120.92943230
  -Hartree energ DENC   =    -84656.12114834
  -exchange      EXHF   =         0.00000000
  -V(xc)+E(xc)   XCENC  =        86.02368315
  PAW double counting   =     12803.21506115   -12360.04897144
  entropy T*S    EENTRO =        -0.03355632
  eigenvalues    EBANDS =      -686.91967544
  atomic energy  EATOM  =     12232.07567246
  Solvation  Ediel_sol  =         0.00000000
  ---------------------------------------------------
  free energy    TOTEN  =      -102.59416357 eV

  energy without entropy =     -102.56060725  energy(sigma->0) =     -102.58297813


--------------------------------------------------------------------------------------------------------




--------------------------------------- Iteration      1(   7)  ---------------------------------------


    POTLOK:  cpu time    0.0330: real time    0.0333
    SETDIJ:  cpu time    0.0054: real time    0.0054
     EDDAV:  cpu time    4.0233: real time    4.0245
       DOS:  cpu time    0.0023: real time    0.0033
    CHARGE:  cpu time    0.2492: real time    0.2493
    MIXING:  cpu time    0.0026: real time    0.0026
    --------------------------------------------
      LOOP:  cpu time    4.3160: real time    4.3184

 eigenvalue-minimisations  :  3800
 total energy-change (2. order) :-0.1760046E+02  (-0.8667603E+01)
 number of electron     169.9999874 magnetization 
 augmentation part       48.7324310 magnetization 

 Broyden mixing:
  rms(total) = 0.41878E+01    rms(broyden)= 0.41871E+01
  rms(prec ) = 0.52554E+01
  weight for this iteration     100.00

 eigenvalues of (default mixing * dielectric matrix)
  average eigenvalue GAMMA=   0.8565
  1.4849  0.2281

 Free energy of the ion-electron system (eV)
  ---------------------------------------------------
  alpha Z        PSCENC =       358.28533891
  Ewald energy   TEWEN  =     72120.92943230
  -Hartree energ DENC   =    -84800.19229394
  -exchange      EXHF   =         0.00000000
  -V(xc)+E(xc)   XCENC  =        84.63562316
  PAW double counting   =     13497.34654312   -13059.31010182
  entropy T*S    EENTRO =        -0.06178002
  eigenvalues    EBANDS =      -553.90305860
  atomic energy  EATOM  =     12232.07567246
  Solvation  Ediel_sol  =         0.00000000
  ---------------------------------------------------
  free energy    TOTEN  =      -120.19462445 eV

  energy without entropy =     -120.13284443  energy(sigma->0) =     -120.17403111


--------------------------------------------------------------------------------------------------------




--------------------------------------- Iteration      1(   8)  ---------------------------------------


    POTLOK:  cpu time    0.0383: real time    0.0386
    SETDIJ:  cpu time    0.0050: real time    0.0050
     EDDAV:  cpu time    3.9959: real time    3.9974
       DOS:  cpu time    0.0020: real time    0.0020
    CHARGE:  cpu time    0.2116: real time    0.2116
    MIXING:  cpu time    0.0018: real time    0.0018
    --------------------------------------------
      LOOP:  cpu time    4.2546: real time    4.2563

 eigenvalue-minimisations  :  3552
 total energy-change (2. order) : 0.4177796E+01  (-0.5900431E+01)
 number of electron     169.9999872 magnetization 
 augmentation part       50.0377188 magnetization 

 Broyden mixing:
  rms(total) = 0.34130E+01    rms(broyden)= 0.34128E+01
  rms(prec ) = 0.42536E+01
  weight for this iteration     100.00

 eigenvalues of (default mixing * dielectric matrix)
  average eigenvalue GAMMA=   0.8192
  1.9426  0.2977  0.2172

 Free energy of the ion-electron system (eV)
  ---------------------------------------------------
  alpha Z        PSCENC =       358.28533891
  Ewald energy   TEWEN  =     72120.92943230
  -Hartree energ DENC   =    -84773.02585729
  -exchange      EXHF   =         0.00000000
  -V(xc)+E(xc)   XCENC  =        83.90407341
  PAW double counting   =     14143.53110720   -13712.46684756
  entropy T*S    EENTRO =        -0.02462424
  eigenvalues    EBANDS =      -569.22512340
  atomic energy  EATOM  =     12232.07567246
  Solvation  Ediel_sol  =         0.00000000
  ---------------------------------------------------
  free energy    TOTEN  =      -116.01682822 eV

  energy without entropy =     -115.99220398  energy(sigma->0) =     -116.00862014


--------------------------------------------------------------------------------------------------------




--------------------------------------- Iteration      1(   9)  ---------------------------------------


    POTLOK:  cpu time    0.0340: real time    0.0342
    SETDIJ:  cpu time    0.0057: real time    0.0057
     EDDAV:  cpu time    3.7959: real time    3.7976
       DOS:  cpu time    0.0020: real time    0.0023
    CHARGE:  cpu time    0.2406: real time    0.2408
    MIXING:  cpu time    0.0019: real time    0.0019
    --------------------------------------------
      LOOP:  cpu time    4.0800: real time    4.0825

 eigenvalue-minimisations  :  3448
 total energy-change (2. order) : 0.1209487E+02  (-0.5119179E+01)
 number of electron     169.9999898 magnetization 
 augmentation part       50.8916280 magnetization 

 Broyden mixing:
  rms(total) = 0.20645E+01    rms(broyden)= 0.20643E+01
  rms(prec ) = 0.28126E+01
  weight for this iteration     100.00

 eigenvalues of (default mixing * dielectric matrix)
  average eigenvalue GAMMA=   0.8371
  2.2393  0.6706  0.2771  0.1615

 Free energy of the ion-electron system (eV)
  ---------------------------------------------------
  alpha Z        PSCENC =       358.28533891
  Ewald energy   TEWEN  =     72120.92943230
  -Hartree energ DENC   =    -84667.99137922
  -exchange      EXHF   =         0.00000000
  -V(xc)+E(xc)   XCENC  =        83.65836705
  PAW double counting   =     14717.31301240   -14291.69906680
  entropy T*S    EENTRO =         0.03028979
  eigenvalues    EBANDS =      -656.52362543
  atomic energy  EATOM  =     12232.07567246
  Solvation  Ediel_sol  =         0.00000000
  ---------------------------------------------------
  free energy    TOTEN  =      -103.92195855 eV

  energy without entropy =     -103.95224834  energy(sigma->0) =     -103.93205515


--------------------------------------------------------------------------------------------------------




--------------------------------------- Iteration      1(  10)  ---------------------------------------


    POTLOK:  cpu time    0.0363: real time    0.0365
    SETDIJ:  cpu time    0.0060: real time    0.0060
     EDDAV:  cpu time    3.5741: real time    3.5753
       DOS:  cpu time    0.0024: real time    0.0024
    CHARGE:  cpu time    0.2115: real time    0.2115
    MIXING:  cpu time    0.0022: real time    0.0022
    --------------------------------------------
      LOOP:  cpu time    3.8325: real time    3.8340

 eigenvalue-minimisations  :  3200
 total energy-change (2. order) :-0.1847071E+01  (-0.3165428E+01)
 number of electron     169.9999880 magnetization 
 augmentation part       50.7957701 magnetization 

 Broyden mixing:
  rms(total) = 0.23727E+01    rms(broyden)= 0.23725E+01
  rms(prec ) = 0.30392E+01
  weight for this iteration     100.00

 eigenvalues of (default mixing * dielectric matrix)
  average eigenvalue GAMMA=   0.7288
  2.3004  0.6718  0.2642  0.2642  0.1432

 Free energy of the ion-electron system (eV)
  ---------------------------------------------------
  alpha Z        PSCENC =       358.28533891
  Ewald energy   TEWEN  =     72120.92943230
  -Hartree energ DENC   =    -84706.85962739
  -exchange      EXHF   =         0.00000000
  -V(xc)+E(xc)   XCENC  =        83.97082213
  PAW double counting   =     15146.37994572   -14722.81762206
  entropy T*S    EENTRO =        -0.00553966
  eigenvalues    EBANDS =      -617.72745243
  atomic energy  EATOM  =     12232.07567246
  Solvation  Ediel_sol  =         0.00000000
  ---------------------------------------------------
  free energy    TOTEN  =      -105.76903003 eV

  energy without entropy =     -105.76349038  energy(sigma->0) =     -105.76718348


--------------------------------------------------------------------------------------------------------




--------------------------------------- Iteration      1(  11)  ---------------------------------------


    POTLOK:  cpu time    0.0327: real time    0.0334
    SETDIJ:  cpu time    0.0054: real time    0.0054
     EDDAV:  cpu time    3.6947: real time    3.6959
       DOS:  cpu time    0.0026: real time    0.0034
    CHARGE:  cpu time    0.2296: real time    0.2296
    MIXING:  cpu time    0.0019: real time    0.0019
    --------------------------------------------
      LOOP:  cpu time    3.9668: real time    3.9695

 eigenvalue-minimisations  :  3032
 total energy-change (2. order) : 0.6594948E+01  (-0.1646187E+01)
 number of electron     169.9999885 magnetization 
 augmentation part       50.9595964 magnetization 

 Broyden mixing:
  rms(total) = 0.65856E+00    rms(broyden)= 0.65826E+00
  rms(prec ) = 0.76529E+00
  weight for this iteration     100.00

 eigenvalues of (default mixing * dielectric matrix)
  average eigenvalue GAMMA=   0.6926
  1.9899  0.9161  0.5603  0.2711  0.2711  0.1468

 Free energy of the ion-electron system (eV)
  ---------------------------------------------------
  alpha Z        PSCENC =       358.28533891
  Ewald energy   TEWEN  =     72120.92943230
  -Hartree energ DENC   =    -84692.23602943
  -exchange      EXHF   =         0.00000000
  -V(xc)+E(xc)   XCENC  =        84.05257378
  PAW double counting   =     15240.19257643   -14817.37570956
  entropy T*S    EENTRO =        -0.00933451
  eigenvalues    EBANDS =      -625.08860196
  atomic energy  EATOM  =     12232.07567246
  Solvation  Ediel_sol  =         0.00000000
  ---------------------------------------------------
  free energy    TOTEN  =       -99.17408158 eV

  energy without entropy =      -99.16474707  energy(sigma->0) =      -99.17097008


--------------------------------------------------------------------------------------------------------




--------------------------------------- Iteration      1(  12)  ---------------------------------------


    POTLOK:  cpu time    0.0354: real time    0.0356
    SETDIJ:  cpu time    0.0060: real time    0.0060
     EDDAV:  cpu time    3.4316: real time    3.4326
       DOS:  cpu time    0.0021: real time    0.0021
    CHARGE:  cpu time    0.1962: real time    0.1963
    MIXING:  cpu time    0.0019: real time    0.0019
    --------------------------------------------
      LOOP:  cpu time    3.6733: real time    3.6746

 eigenvalue-minimisations  :  3128
 total energy-change (2. order) :-0.5062351E-01  (-0.4011534E+00)
 number of electron     169.9999894 magnetization 
 augmentation part       50.7127336 magnetization 

 Broyden mixing:
  rms(total) = 0.85344E+00    rms(broyden)= 0.85337E+00
  rms(prec ) = 0.92183E+00
  weight for this iteration     100.00

 eigenvalues of (default mixing * dielectric matrix)
  average eigenvalue GAMMA=   0.6340
  2.0694  0.8811  0.4183  0.4183  0.2527  0.2527  0.1453

 Free energy of the ion-electron system (eV)
  ---------------------------------------------------
  alpha Z        PSCENC =       358.28533891
  Ewald energy   TEWEN  =     72120.92943230
  -Hartree energ DENC   =    -84695.88224929
  -exchange      EXHF   =         0.00000000
  -V(xc)+E(xc)   XCENC  =        84.29152714
  PAW double counting   =     15113.62922164   -14688.90199064
  entropy T*S    EENTRO =         0.00518410
  eigenvalues    EBANDS =      -623.65684170
  atomic energy  EATOM  =     12232.07567246
  Solvation  Ediel_sol  =         0.00000000
  ---------------------------------------------------
  free energy    TOTEN  =       -99.22470509 eV

  energy without entropy =      -99.22988920  energy(sigma->0) =      -99.22643313


--------------------------------------------------------------------------------------------------------




--------------------------------------- Iteration      1(  13)  ---------------------------------------


    POTLOK:  cpu time    0.0343: real time    0.0355
    SETDIJ:  cpu time    0.0058: real time    0.0058
     EDDAV:  cpu time    3.2103: real time    3.2114
       DOS:  cpu time    0.0021: real time    0.0021
    CHARGE:  cpu time    0.2175: real time    0.2175
    MIXING:  cpu time    0.0020: real time    0.0020
    --------------------------------------------
      LOOP:  cpu time    3.4720: real time    3.4744

 eigenvalue-minimisations  :  2880
 total energy-change (2. order) : 0.3781991E+00  (-0.1085192E+00)
 number of electron     169.9999890 magnetization 
 augmentation part       50.7403900 magnetization 

 Broyden mixing:
  rms(total) = 0.33573E+00    rms(broyden)= 0.33569E+00
  rms(prec ) = 0.38037E+00
  weight for this iteration     100.00

 eigenvalues of (default mixing * dielectric matrix)
  average eigenvalue GAMMA=   0.6999
  2.0240  0.9866  0.9866  0.6123  0.3254  0.2590  0.2590  0.1461

 Free energy of the ion-electron system (eV)
  ---------------------------------------------------
  alpha Z        PSCENC =       358.28533891
  Ewald energy   TEWEN  =     72120.92943230
  -Hartree energ DENC   =    -84698.32622909
  -exchange      EXHF   =         0.00000000
  -V(xc)+E(xc)   XCENC  =        84.30158263
  PAW double counting   =     15123.48901745   -14698.95314966
  entropy T*S    EENTRO =        -0.01348077
  eigenvalues    EBANDS =      -620.63469025
  atomic energy  EATOM  =     12232.07567246
  Solvation  Ediel_sol  =         0.00000000
  ---------------------------------------------------
  free energy    TOTEN  =       -98.84650604 eV

  energy without entropy =      -98.83302526  energy(sigma->0) =      -98.84201245


--------------------------------------------------------------------------------------------------------




--------------------------------------- Iteration      1(  14)  ---------------------------------------


    POTLOK:  cpu time    0.0362: real time    0.0363
    SETDIJ:  cpu time    0.0059: real time    0.0059
     EDDAV:  cpu time    3.6709: real time    3.6724
       DOS:  cpu time    0.0021: real time    0.0033
    CHARGE:  cpu time    0.2128: real time    0.2128
    MIXING:  cpu time    0.0024: real time    0.0024
    --------------------------------------------
      LOOP:  cpu time    3.9303: real time    3.9332

 eigenvalue-minimisations  :  3128
 total energy-change (2. order) : 0.1902513E-01  (-0.1659386E-01)
 number of electron     169.9999889 magnetization 
 augmentation part       50.7040732 magnetization 

 Broyden mixing:
  rms(total) = 0.23256E+00    rms(broyden)= 0.23255E+00
  rms(prec ) = 0.27166E+00
  weight for this iteration     100.00

 eigenvalues of (default mixing * dielectric matrix)
  average eigenvalue GAMMA=   0.7215
  1.9106  1.3140  1.3140  0.5635  0.1460  0.2596  0.2596  0.3631  0.3631

 Free energy of the ion-electron system (eV)
  ---------------------------------------------------
  alpha Z        PSCENC =       358.28533891
  Ewald energy   TEWEN  =     72120.92943230
  -Hartree energ DENC   =    -84701.33989777
  -exchange      EXHF   =         0.00000000
  -V(xc)+E(xc)   XCENC  =        84.37442221
  PAW double counting   =     15040.90236847   -14615.99479896
  entropy T*S    EENTRO =        -0.01431098
  eigenvalues    EBANDS =      -618.04570753
  atomic energy  EATOM  =     12232.07567246
  Solvation  Ediel_sol  =         0.00000000
  ---------------------------------------------------
  free energy    TOTEN  =       -98.82748090 eV

  energy without entropy =      -98.81316992  energy(sigma->0) =      -98.82271057


--------------------------------------------------------------------------------------------------------




--------------------------------------- Iteration      1(  15)  ---------------------------------------


    POTLOK:  cpu time    0.0378: real time    0.0388
    SETDIJ:  cpu time    0.0061: real time    0.0061
     EDDAV:  cpu time    3.2284: real time    3.2294
       DOS:  cpu time    0.0020: real time    0.0033
    CHARGE:  cpu time    0.1903: real time    0.1903
    MIXING:  cpu time    0.0021: real time    0.0021
    --------------------------------------------
      LOOP:  cpu time    3.4668: real time    3.4700

 eigenvalue-minimisations  :  2976
 total energy-change (2. order) : 0.3380156E-01  (-0.1293751E-01)
 number of electron     169.9999890 magnetization 
 augmentation part       50.6692014 magnetization 

 Broyden mixing:
  rms(total) = 0.11888E+00    rms(broyden)= 0.11886E+00
  rms(prec ) = 0.13060E+00
  weight for this iteration     100.00

 eigenvalues of (default mixing * dielectric matrix)
  average eigenvalue GAMMA=   0.7741
  1.9556  1.5901  1.5901  0.6795  0.5897  0.1460  0.2592  0.2592  0.3672  0.3047

 Free energy of the ion-electron system (eV)
  ---------------------------------------------------
  alpha Z        PSCENC =       358.28533891
  Ewald energy   TEWEN  =     72120.92943230
  -Hartree energ DENC   =    -84702.91345510
  -exchange      EXHF   =         0.00000000
  -V(xc)+E(xc)   XCENC  =        84.42935351
  PAW double counting   =     14981.74003274   -14556.51438483
  entropy T*S    EENTRO =        -0.01902822
  eigenvalues    EBANDS =      -616.80664109
  atomic energy  EATOM  =     12232.07567246
  Solvation  Ediel_sol  =         0.00000000
  ---------------------------------------------------
  free energy    TOTEN  =       -98.79367934 eV

  energy without entropy =      -98.77465112  energy(sigma->0) =      -98.78733660


--------------------------------------------------------------------------------------------------------




--------------------------------------- Iteration      1(  16)  ---------------------------------------


    POTLOK:  cpu time    0.0316: real time    0.0323
    SETDIJ:  cpu time    0.0058: real time    0.0058
     EDDAV:  cpu time    3.5386: real time    3.5396
       DOS:  cpu time    0.0021: real time    0.0021
    CHARGE:  cpu time    0.2135: real time    0.2135
    MIXING:  cpu time    0.0031: real time    0.0031
    --------------------------------------------
      LOOP:  cpu time    3.7946: real time    3.7964

 eigenvalue-minimisations  :  3048
 total energy-change (2. order) : 0.1302580E-02  (-0.4615634E-02)
 number of electron     169.9999891 magnetization 
 augmentation part       50.6531031 magnetization 

 Broyden mixing:
  rms(total) = 0.10234E+00    rms(broyden)= 0.10233E+00
  rms(prec ) = 0.11149E+00
  weight for this iteration     100.00

 eigenvalues of (default mixing * dielectric matrix)
  average eigenvalue GAMMA=   0.7945
  1.9952  1.6734  1.6734  0.7810  0.7810  0.4911  0.1460  0.2597  0.2597  0.3865
  0.2927

 Free energy of the ion-electron system (eV)
  ---------------------------------------------------
  alpha Z        PSCENC =       358.28533891
  Ewald energy   TEWEN  =     72120.92943230
  -Hartree energ DENC   =    -84704.01388674
  -exchange      EXHF   =         0.00000000
  -V(xc)+E(xc)   XCENC  =        84.48078923
  PAW double counting   =     14948.42001133   -14523.09163563
  entropy T*S    EENTRO =        -0.01780229
  eigenvalues    EBANDS =      -615.86029631
  atomic energy  EATOM  =     12232.07567246
  Solvation  Ediel_sol  =         0.00000000
  ---------------------------------------------------
  free energy    TOTEN  =       -98.79237676 eV

  energy without entropy =      -98.77457447  energy(sigma->0) =      -98.78644266


--------------------------------------------------------------------------------------------------------




--------------------------------------- Iteration      1(  17)  ---------------------------------------


    POTLOK:  cpu time    0.0320: real time    0.0322
    SETDIJ:  cpu time    0.0056: real time    0.0056
     EDDAV:  cpu time    3.2977: real time    3.2986
       DOS:  cpu time    0.0022: real time    0.0033
    CHARGE:  cpu time    0.2066: real time    0.2066
    MIXING:  cpu time    0.0029: real time    0.0029
    --------------------------------------------
      LOOP:  cpu time    3.5470: real time    3.5493

 eigenvalue-minimisations  :  2960
 total energy-change (2. order) : 0.1093348E-02  (-0.3206604E-02)
 number of electron     169.9999890 magnetization 
 augmentation part       50.6457544 magnetization 

 Broyden mixing:
  rms(total) = 0.60317E-01    rms(broyden)= 0.60310E-01
  rms(prec ) = 0.70745E-01
  weight for this iteration     100.00

 eigenvalues of (default mixing * dielectric matrix)
  average eigenvalue GAMMA=   0.7906
  1.9795  1.7054  1.7054  0.9590  0.9590  0.5281  0.1460  0.2597  0.2597  0.3883
  0.2982  0.2982

 Free energy of the ion-electron system (eV)
  ---------------------------------------------------
  alpha Z        PSCENC =       358.28533891
  Ewald energy   TEWEN  =     72120.92943230
  -Hartree energ DENC   =    -84705.75126366
  -exchange      EXHF   =         0.00000000
  -V(xc)+E(xc)   XCENC  =        84.49427171
  PAW double counting   =     14943.76075619   -14518.42212668
  entropy T*S    EENTRO =        -0.01978140
  eigenvalues    EBANDS =      -614.14358324
  atomic energy  EATOM  =     12232.07567246
  Solvation  Ediel_sol  =         0.00000000
  ---------------------------------------------------
  free energy    TOTEN  =       -98.79128341 eV

  energy without entropy =      -98.77150201  energy(sigma->0) =      -98.78468961


--------------------------------------------------------------------------------------------------------




--------------------------------------- Iteration      1(  18)  ---------------------------------------


    POTLOK:  cpu time    0.0365: real time    0.0372
    SETDIJ:  cpu time    0.0059: real time    0.0059
     EDDAV:  cpu time    3.6523: real time    3.6538
       DOS:  cpu time    0.0024: real time    0.0029
    CHARGE:  cpu time    0.2458: real time    0.2458
    MIXING:  cpu time    0.0033: real time    0.0033
    --------------------------------------------
      LOOP:  cpu time    3.9461: real time    3.9489

 eigenvalue-minimisations  :  3048
 total energy-change (2. order) : 0.3491404E-02  (-0.9986950E-03)
 number of electron     169.9999890 magnetization 
 augmentation part       50.6429993 magnetization 

 Broyden mixing:
  rms(total) = 0.34951E-01    rms(broyden)= 0.34946E-01
  rms(prec ) = 0.39752E-01
  weight for this iteration     100.00

 eigenvalues of (default mixing * dielectric matrix)
  average eigenvalue GAMMA=   0.7856
  2.0898  2.0898  1.3075  1.3075  0.8369  0.1460  0.4955  0.2597  0.2597  0.3836
  0.3749  0.3749  0.2865

 Free energy of the ion-electron system (eV)
  ---------------------------------------------------
  alpha Z        PSCENC =       358.28533891
  Ewald energy   TEWEN  =     72120.92943230
  -Hartree energ DENC   =    -84707.07586176
  -exchange      EXHF   =         0.00000000
  -V(xc)+E(xc)   XCENC  =        84.50301381
  PAW double counting   =     14947.58142823   -14522.23572339
  entropy T*S    EENTRO =        -0.01977646
  eigenvalues    EBANDS =      -612.83131610
  atomic energy  EATOM  =     12232.07567246
  Solvation  Ediel_sol  =         0.00000000
  ---------------------------------------------------
  free energy    TOTEN  =       -98.78779201 eV

  energy without entropy =      -98.76801555  energy(sigma->0) =      -98.78119985


--------------------------------------------------------------------------------------------------------




--------------------------------------- Iteration      1(  19)  ---------------------------------------


    POTLOK:  cpu time    0.0411: real time    0.0421
    SETDIJ:  cpu time    0.0065: real time    0.0065
     EDDAV:  cpu time    3.3907: real time    3.3917
       DOS:  cpu time    0.0021: real time    0.0033
    CHARGE:  cpu time    0.1873: real time    0.1874
    MIXING:  cpu time    0.0026: real time    0.0026
    --------------------------------------------
      LOOP:  cpu time    3.6302: real time    3.6336

 eigenvalue-minimisations  :  3112
 total energy-change (2. order) : 0.7205022E-03  (-0.1754127E-03)
 number of electron     169.9999890 magnetization 
 augmentation part       50.6389219 magnetization 

 Broyden mixing:
  rms(total) = 0.23487E-01    rms(broyden)= 0.23485E-01
  rms(prec ) = 0.27377E-01
  weight for this iteration     100.00

 eigenvalues of (default mixing * dielectric matrix)
  average eigenvalue GAMMA=   0.8350
  2.3754  1.8959  1.8959  1.0826  1.0826  0.5799  0.5799  0.5374  0.1460  0.2597
  0.2597  0.3535  0.3535  0.2880

 Free energy of the ion-electron system (eV)
  ---------------------------------------------------
  alpha Z        PSCENC =       358.28533891
  Ewald energy   TEWEN  =     72120.92943230
  -Hartree energ DENC   =    -84707.43823540
  -exchange      EXHF   =         0.00000000
  -V(xc)+E(xc)   XCENC  =        84.50952127
  PAW double counting   =     14945.39724159   -14520.01214549
  entropy T*S    EENTRO =        -0.01926225
  eigenvalues    EBANDS =      -612.51463488
  atomic energy  EATOM  =     12232.07567246
  Solvation  Ediel_sol  =         0.00000000
  ---------------------------------------------------
  free energy    TOTEN  =       -98.78707151 eV

  energy without entropy =      -98.76780925  energy(sigma->0) =      -98.78065075


--------------------------------------------------------------------------------------------------------




--------------------------------------- Iteration      1(  20)  ---------------------------------------


    POTLOK:  cpu time    0.0322: real time    0.0330
    SETDIJ:  cpu time    0.0055: real time    0.0055
     EDDAV:  cpu time    2.9355: real time    2.9363
       DOS:  cpu time    0.0023: real time    0.0023
    CHARGE:  cpu time    0.1986: real time    0.1985
    MIXING:  cpu time    0.0026: real time    0.0026
    --------------------------------------------
      LOOP:  cpu time    3.1767: real time    3.1783

 eigenvalue-minimisations  :  2440
 total energy-change (2. order) :-0.1373504E-03  (-0.2134301E-03)
 number of electron     169.9999890 magnetization 
 augmentation part       50.6426500 magnetization 

 Broyden mixing:
  rms(total) = 0.17120E-01    rms(broyden)= 0.17119E-01
  rms(prec ) = 0.21204E-01
  weight for this iteration     100.00

 eigenvalues of (default mixing * dielectric matrix)
  average eigenvalue GAMMA=   0.8309
  2.4814  1.9233  1.9233  1.0414  1.0414  0.7251  0.7251  0.5101  0.1460  0.2597
  0.2597  0.4413  0.3485  0.3485  0.2885

 Free energy of the ion-electron system (eV)
  ---------------------------------------------------
  alpha Z        PSCENC =       358.28533891
  Ewald energy   TEWEN  =     72120.92943230
  -Hartree energ DENC   =    -84707.44376858
  -exchange      EXHF   =         0.00000000
  -V(xc)+E(xc)   XCENC  =        84.51049114
  PAW double counting   =     14949.09076863   -14523.74256745
  entropy T*S    EENTRO =        -0.01969791
  eigenvalues    EBANDS =      -612.47287835
  atomic energy  EATOM  =     12232.07567246
  Solvation  Ediel_sol  =         0.00000000
  ---------------------------------------------------
  free energy    TOTEN  =       -98.78720886 eV

  energy without entropy =      -98.76751094  energy(sigma->0) =      -98.78064289


--------------------------------------------------------------------------------------------------------




--------------------------------------- Iteration      1(  21)  ---------------------------------------


    POTLOK:  cpu time    0.0304: real time    0.0305
    SETDIJ:  cpu time    0.0057: real time    0.0057
     EDDAV:  cpu time    2.3333: real time    2.3342
       DOS:  cpu time    0.0024: real time    0.0031
    --------------------------------------------
      LOOP:  cpu time    2.3718: real time    2.3735

 eigenvalue-minimisations  :  1760
 total energy-change (2. order) : 0.8405341E-04  (-0.2412134E-04)
 number of electron     169.9999890 magnetization 
 augmentation part       50.6426500 magnetization 

 Free energy of the ion-electron system (eV)
  ---------------------------------------------------
  alpha Z        PSCENC =       358.28533891
  Ewald energy   TEWEN  =     72120.92943230
  -Hartree energ DENC   =    -84707.75380787
  -exchange      EXHF   =         0.00000000
  -V(xc)+E(xc)   XCENC  =        84.51342238
  PAW double counting   =     14950.23470364   -14524.88422546
  entropy T*S    EENTRO =        -0.01963012
  eigenvalues    EBANDS =      -612.16803103
  atomic energy  EATOM  =     12232.07567246
  Solvation  Ediel_sol  =         0.00000000
  ---------------------------------------------------
  free energy    TOTEN  =       -98.78712480 eV

  energy without entropy =      -98.76749468  energy(sigma->0) =      -98.78058143


--------------------------------------------------------------------------------------------------------




 average (electrostatic) potential at core
  the test charge radii are     1.2059  0.6991  0.7215
  (the norm of the test charge is              1.0000)
       1 -73.8065       2 -73.8073       3 -73.8079       4 -73.7623       5 -74.2508
       6 -74.1505       7 -74.1514       8 -74.1526       9 -74.1662      10 -74.1654
      11 -74.0366      12 -74.1669      13 -74.0168      14 -74.0167      15 -74.0166
      16 -73.7466      17 -57.1872      18 -77.0352
 
 
 
 E-fermi :  -0.1784     XC(G=0):  -5.4774     alpha+bet : -5.6359


 k-point     1 :       0.0000    0.0000    0.0000
  band No.  band energies     occupation 
      1     -22.3880      2.00000
      2     -10.8309      2.00000
      3      -9.1025      2.00000
      4      -7.7922      2.00000
      5      -6.9891      2.00000
      6      -6.7881      2.00000
      7      -6.6710      2.00000
      8      -6.6708      2.00000
      9      -6.5144      2.00000
     10      -6.4104      2.00000
     11      -6.4103      2.00000
     12      -6.3173      2.00000
     13      -6.2578      2.00000
     14      -6.2372      2.00000
     15      -6.2372      2.00000
     16      -5.8420      2.00000
     17      -5.8087      2.00000
     18      -5.8087      2.00000
     19      -5.6724      2.00000
     20      -5.6573      2.00000
     21      -5.6571      2.00000
     22      -5.4214      2.00000
     23      -5.4214      2.00000
     24      -5.0522      2.00000
     25      -4.7064      2.00000
     26      -4.7063      2.00000
     27      -4.2809      2.00000
     28      -3.8778      2.00000
     29      -3.8777      2.00000
     30      -3.8097      2.00000
     31      -3.7560      2.00000
     32      -3.7560      2.00000
     33      -3.7299      2.00000
     34      -3.5848      2.00000
     35      -3.5067      2.00000
     36      -3.5067      2.00000
     37      -3.4062      2.00000
     38      -3.4006      2.00000
     39      -3.4005      2.00000
     40      -3.2251      2.00000
     41      -3.2250      2.00000
     42      -3.1909      2.00000
     43      -3.1855      2.00000
     44      -3.1854      2.00000
     45      -3.0456      2.00000
     46      -3.0456      2.00000
     47      -2.7451      2.00000
     48      -2.6453      2.00000
     49      -2.6452      2.00000
     50      -2.5537      2.00000
     51      -2.3281      2.00000
     52      -2.3281      2.00000
     53      -2.1682      2.00000
     54      -2.1283      2.00000
     55      -2.1282      2.00000
     56      -1.7649      2.00000
     57      -1.6167      2.00000
     58      -1.6167      2.00000
     59      -1.4682      2.00000
     60      -1.4680      2.00000
     61      -1.2512      2.00000
     62      -1.2511      2.00000
     63      -1.2135      2.00000
     64      -0.9700      2.00000
     65      -0.9699      2.00000
     66      -0.8314      2.00004
     67      -0.8313      2.00004
     68      -0.8266      2.00005
     69      -0.5002      2.04529
     70      -0.4217      2.07089
     71      -0.4216      2.07089
     72      -0.3672      2.03663
     73      -0.3639      2.03179
     74      -0.3636      2.03136
     75      -0.2608      1.63590
     76      -0.2605      1.63402
     77      -0.0711      0.22112
     78      -0.0639      0.18545
     79      -0.0638      0.18489
     80       0.0230     -0.05165
     81       0.0587     -0.07041
     82       0.0588     -0.07042
     83       0.1313     -0.05090
     84       0.1408     -0.04651
     85       0.1409     -0.04647
     86       0.1562     -0.03950
     87       0.2844     -0.00511
     88       0.2877     -0.00478
     89       0.2879     -0.00476
     90       0.6557     -0.00000
     91       0.6557     -0.00000
     92       0.7596     -0.00000
     93       1.3884     -0.00000
     94       2.0262     -0.00000
     95       2.0263     -0.00000
     96       2.4594     -0.00000
     97       2.4800     -0.00000
     98       2.4801     -0.00000
     99       2.6787     -0.00000
    100       2.7335     -0.00000
    101       2.7337     -0.00000
    102       3.2786     -0.00000
    103       3.2786     -0.00000
    104       4.7898     -0.00000

 k-point     2 :       0.2000    0.0000    0.0000
  band No.  band energies     occupation 
      1     -22.3877      2.00000
      2     -10.7290      2.00000
      3      -8.7892      2.00000
      4      -7.5184      2.00000
      5      -6.8723      2.00000
      6      -6.6469      2.00000
      7      -6.5435      2.00000
      8      -6.4784      2.00000
      9      -6.4468      2.00000
     10      -6.2654      2.00000
     11      -6.1944      2.00000
     12      -6.1668      2.00000
     13      -6.0838      2.00000
     14      -6.0153      2.00000
     15      -6.0078      2.00000
     16      -5.6957      2.00000
     17      -5.6661      2.00000
     18      -5.6546      2.00000
     19      -5.5494      2.00000
     20      -5.4045      2.00000
     21      -5.4000      2.00000
     22      -5.3041      2.00000
     23      -5.2158      2.00000
     24      -4.9519      2.00000
     25      -4.6558      2.00000
     26      -4.6381      2.00000
     27      -4.3188      2.00000
     28      -3.9993      2.00000
     29      -3.9867      2.00000
     30      -3.9049      2.00000
     31      -3.8435      2.00000
     32      -3.7191      2.00000
     33      -3.7013      2.00000
     34      -3.6373      2.00000
     35      -3.6302      2.00000
     36      -3.5329      2.00000
     37      -3.3408      2.00000
     38      -3.3072      2.00000
     39      -3.2807      2.00000
     40      -3.2456      2.00000
     41      -3.2143      2.00000
     42      -3.1852      2.00000
     43      -3.1357      2.00000
     44      -3.1206      2.00000
     45      -3.0274      2.00000
     46      -2.9743      2.00000
     47      -2.9395      2.00000
     48      -2.8692      2.00000
     49      -2.8601      2.00000
     50      -2.8196      2.00000
     51      -2.6577      2.00000
     52      -2.5854      2.00000
     53      -2.3037      2.00000
     54      -2.2538      2.00000
     55      -2.1299      2.00000
     56      -2.0642      2.00000
     57      -1.8296      2.00000
     58      -1.8018      2.00000
     59      -1.5957      2.00000
     60      -1.5755      2.00000
     61      -1.4543      2.00000
     62      -1.4139      2.00000
     63      -1.3743      2.00000
     64      -1.3524      2.00000
     65      -1.2737      2.00000
     66      -1.2473      2.00000
     67      -1.2107      2.00000
     68      -1.2100      2.00000
     69      -1.0395      2.00000
     70      -0.8503      2.00002
     71      -0.8165      2.00006
     72      -0.6968      2.00152
     73      -0.6809      2.00219
     74      -0.5989      2.01132
     75      -0.5512      2.02419
     76      -0.5451      2.02635
     77      -0.5223      2.03539
     78      -0.4594      2.06318
     79      -0.4220      2.07090
     80      -0.4177      2.07066
     81      -0.2833      1.76666
     82      -0.2286      1.41030
     83      -0.2162      1.31397
     84      -0.1914      1.10994
     85      -0.1521      0.77974
     86      -0.0415      0.09128
     87      -0.0227      0.03133
     88       0.0442     -0.06647
     89       0.0579     -0.07031
     90       0.2107     -0.01899
     91       0.9169     -0.00000
     92       1.2882     -0.00000
     93       1.3459     -0.00000
     94       1.5949     -0.00000
     95       1.8657     -0.00000
     96       1.9292     -0.00000
     97       2.4266     -0.00000
     98       2.5064     -0.00000
     99       3.0807     -0.00000
    100       3.6468     -0.00000
    101       3.8906     -0.00000
    102       4.2200     -0.00000
    103       4.5688     -0.00000
    104       5.2625     -0.00000

 k-point     3 :       0.4000    0.0000    0.0000
  band No.  band energies     occupation 
      1     -22.3869      2.00000
      2     -10.5581      2.00000
      3      -7.9454      2.00000
      4      -7.0552      2.00000
      5      -6.8933      2.00000
      6      -6.6210      2.00000
      7      -6.4418      2.00000
[...]
     97       2.7393     -0.00000
     98       2.8626     -0.00000
     99       3.3081     -0.00000
    100       3.9986     -0.00000
    101       4.3121     -0.00000
    102       4.7196     -0.00000
    103       5.4214      0.00000
    104       5.9215      0.00000

 k-point    12 :      -0.4000    0.4000    0.0000
  band No.  band energies     occupation 
      1     -22.3866      2.00000
      2     -10.5040      2.00000
      3      -7.2675      2.00000
      4      -7.2092      2.00000
      5      -6.7356      2.00000
      6      -6.6166      2.00000
      7      -6.3924      2.00000
      8      -6.1822      2.00000
      9      -6.0965      2.00000
     10      -5.9328      2.00000
     11      -5.5892      2.00000
     12      -5.4031      2.00000
     13      -5.3194      2.00000
     14      -5.2736      2.00000
     15      -5.2253      2.00000
     16      -5.1526      2.00000
     17      -5.0434      2.00000
     18      -4.9792      2.00000
     19      -4.9318      2.00000
     20      -4.7795      2.00000
     21      -4.7629      2.00000
     22      -4.7494      2.00000
     23      -4.7107      2.00000
     24      -4.6145      2.00000
     25      -4.5715      2.00000
     26      -4.4066      2.00000
     27      -4.3913      2.00000
     28      -4.3795      2.00000
     29      -4.3436      2.00000
     30      -4.3003      2.00000
     31      -4.2570      2.00000
     32      -4.2143      2.00000
     33      -4.1747      2.00000
     34      -3.9671      2.00000
     35      -3.8180      2.00000
     36      -3.7616      2.00000
     37      -3.7388      2.00000
     38      -3.7127      2.00000
     39      -3.6114      2.00000
     40      -3.5811      2.00000
     41      -3.5583      2.00000
     42      -3.5182      2.00000
     43      -3.4986      2.00000
     44      -3.4189      2.00000
     45      -3.3403      2.00000
     46      -3.1899      2.00000
     47      -3.1542      2.00000
     48      -3.0591      2.00000
     49      -2.9702      2.00000
     50      -2.9331      2.00000
     51      -2.8819      2.00000
     52      -2.8226      2.00000
     53      -2.8041      2.00000
     54      -2.7922      2.00000
     55      -2.6166      2.00000
     56      -2.5442      2.00000
     57      -2.3451      2.00000
     58      -2.2711      2.00000
     59      -2.2120      2.00000
     60      -2.1851      2.00000
     61      -2.1510      2.00000
     62      -2.0902      2.00000
     63      -1.9638      2.00000
     64      -1.8658      2.00000
     65      -1.8301      2.00000
     66      -1.7828      2.00000
     67      -1.6668      2.00000
     68      -1.6273      2.00000
     69      -1.4887      2.00000
     70      -1.4871      2.00000
     71      -1.3744      2.00000
     72      -1.3298      2.00000
     73      -1.2800      2.00000
     74      -1.2528      2.00000
     75      -1.1682      2.00000
     76      -1.0554      2.00000
     77      -1.0239      2.00000
     78      -0.9062      2.00000
     79      -0.8741      2.00001
     80      -0.8009      2.00010
     81      -0.7063      2.00121
     82      -0.5508      2.02432
     83      -0.4956      2.04741
     84      -0.4402      2.06897
     85      -0.4175      2.07065
     86      -0.3702      2.04071
     87      -0.2286      1.41054
     88      -0.2070      1.23945
     89       0.0131     -0.04022
     90       0.2045     -0.02088
     91       0.2560     -0.00883
     92       0.2875     -0.00480
     93       1.0992     -0.00000
     94       1.6688     -0.00000
     95       2.0367     -0.00000
     96       2.8388     -0.00000
     97       3.1440     -0.00000
     98       3.5210     -0.00000
     99       3.6976     -0.00000
    100       4.3669     -0.00000
    101       4.7020     -0.00000
    102       5.0521     -0.00000
    103       5.3186      0.00000
    104       5.4888      0.00000

 k-point    13 :      -0.2000    0.4000    0.0000
  band No.  band energies     occupation 
      1     -22.3866      2.00000
      2     -10.5040      2.00000
      3      -7.2677      2.00000
      4      -7.2090      2.00000
      5      -6.7356      2.00000
      6      -6.6166      2.00000
      7      -6.3925      2.00000
      8      -6.1823      2.00000
      9      -6.0964      2.00000
     10      -5.9329      2.00000
     11      -5.5891      2.00000
     12      -5.4029      2.00000
     13      -5.3196      2.00000
     14      -5.2737      2.00000
     15      -5.2252      2.00000
     16      -5.1527      2.00000
     17      -5.0435      2.00000
     18      -4.9791      2.00000
     19      -4.9317      2.00000
     20      -4.7795      2.00000
     21      -4.7629      2.00000
     22      -4.7495      2.00000
     23      -4.7107      2.00000
     24      -4.6145      2.00000
     25      -4.5715      2.00000
     26      -4.4067      2.00000
     27      -4.3913      2.00000
     28      -4.3796      2.00000
     29      -4.3436      2.00000
     30      -4.3003      2.00000
     31      -4.2568      2.00000
     32      -4.2143      2.00000
     33      -4.1748      2.00000
     34      -3.9671      2.00000
     35      -3.8180      2.00000
     36      -3.7617      2.00000
     37      -3.7388      2.00000
     38      -3.7127      2.00000
     39      -3.6114      2.00000
     40      -3.5811      2.00000
     41      -3.5584      2.00000
     42      -3.5182      2.00000
     43      -3.4985      2.00000
     44      -3.4189      2.00000
     45      -3.3404      2.00000
     46      -3.1900      2.00000
     47      -3.1541      2.00000
     48      -3.0590      2.00000
     49      -2.9702      2.00000
     50      -2.9333      2.00000
     51      -2.8818      2.00000
     52      -2.8225      2.00000
     53      -2.8042      2.00000
     54      -2.7923      2.00000
     55      -2.6165      2.00000
     56      -2.5443      2.00000
     57      -2.3449      2.00000
     58      -2.2713      2.00000
     59      -2.2121      2.00000
     60      -2.1851      2.00000
     61      -2.1508      2.00000
     62      -2.0902      2.00000
     63      -1.9638      2.00000
     64      -1.8656      2.00000
     65      -1.8302      2.00000
     66      -1.7827      2.00000
     67      -1.6667      2.00000
     68      -1.6273      2.00000
     69      -1.4886      2.00000
     70      -1.4873      2.00000
     71      -1.3744      2.00000
     72      -1.3297      2.00000
     73      -1.2802      2.00000
     74      -1.2528      2.00000
     75      -1.1681      2.00000
     76      -1.0553      2.00000
     77      -1.0239      2.00000
     78      -0.9062      2.00000
     79      -0.8740      2.00001
     80      -0.8009      2.00010
     81      -0.7064      2.00121
     82      -0.5509      2.02428
     83      -0.4956      2.04744
     84      -0.4405      2.06891
     85      -0.4173      2.07062
     86      -0.3700      2.04042
     87      -0.2284      1.40917
     88      -0.2071      1.24056
     89       0.0130     -0.04014
     90       0.2045     -0.02088
     91       0.2560     -0.00883
     92       0.2874     -0.00480
     93       1.0992     -0.00000
     94       1.6688     -0.00000
     95       2.0367     -0.00000
     96       2.8387     -0.00000
     97       3.1440     -0.00000
     98       3.5211     -0.00000
     99       3.6975     -0.00000
    100       4.3669     -0.00000
    101       4.7021     -0.00000
    102       5.0526     -0.00000
    103       5.3185      0.00000
    104       5.4884      0.00000


--------------------------------------------------------------------------------------------------------


 soft charge-density along one line, spin component           1
         0         1         2         3         4         5         6         7         8         9
 total charge-density along one line
 
 pseudopotential strength for first ion, spin component:           1
 -6.616   0.002  -0.000  -0.010  -0.000  -6.713   0.002  -0.000
  0.002  -6.494   0.001   0.000  -0.012   0.002  -6.595   0.001
 -0.000   0.001  -6.486   0.002  -0.000  -0.000   0.001  -6.587
 -0.010   0.000   0.002  -6.494   0.002  -0.010   0.000   0.002
 -0.000  -0.012  -0.000   0.002  -6.616  -0.000  -0.012  -0.000
 -6.713   0.002  -0.000  -0.010  -0.000  -6.794   0.002  -0.000
  0.002  -6.595   0.001   0.000  -0.012   0.002  -6.679   0.001
 -0.000   0.001  -6.587   0.002  -0.000  -0.000   0.001  -6.672
 -0.010   0.000   0.002  -6.594   0.002  -0.009   0.000   0.001
 -0.000  -0.012  -0.000   0.002  -6.713  -0.000  -0.011  -0.000
 -0.000  -0.001  -0.037  -0.001  -0.000  -0.000  -0.001  -0.036
 -0.000  -0.001  -0.054  -0.002  -0.000  -0.000  -0.001  -0.053
 -0.000  -0.005   0.000  -0.000   0.000  -0.000  -0.005   0.000
 -0.000  -0.000  -0.010  -0.000  -0.000  -0.000  -0.000  -0.010
  0.000  -0.000   0.000  -0.005  -0.000   0.000  -0.000   0.000
 -0.000  -0.004   0.000  -0.000   0.001  -0.000  -0.004   0.000
 -0.000  -0.000  -0.011  -0.000  -0.000  -0.000  -0.000  -0.011
  0.000  -0.000   0.000  -0.004  -0.000   0.000  -0.000   0.000
 total augmentation occupancy for first ion, spin component:           1
  2.938   0.014  -0.010  -0.214  -0.006  -1.814  -0.010   0.008   0.042   0.004  -0.001   0.001   0.001   0.000  -0.045  -0.000
  0.014   3.901   0.015  -0.008  -0.230  -0.009  -2.030  -0.010   0.006   0.062   0.006  -0.002  -0.241  -0.002   0.001   0.010
 -0.010   0.015   4.074   0.026  -0.006   0.008  -0.010  -2.450  -0.017   0.005   0.820  -0.153   0.002  -0.282   0.003   0.000
 -0.214  -0.008   0.026   3.893   0.014   0.051   0.006  -0.017  -2.024  -0.009   0.011  -0.003   0.001  -0.004  -0.239  -0.000
 -0.006  -0.230  -0.006   0.014   2.945   0.004   0.054   0.004  -0.010  -1.819  -0.000   0.001  -0.046   0.000   0.001   0.003
 -1.814  -0.009   0.008   0.051   0.004   2.317   0.007  -0.006   0.073  -0.003   0.001  -0.001  -0.000  -0.000   0.046  -0.000
 -0.010  -2.030  -0.010   0.006   0.054   0.007   2.002   0.007  -0.004   0.065  -0.002  -0.000   0.234   0.002  -0.001  -0.017
  0.008  -0.010  -2.450  -0.017   0.004  -0.006   0.007   2.596   0.012  -0.003  -0.681   0.096  -0.001   0.345  -0.002   0.000
  0.042   0.006  -0.017  -2.024  -0.010   0.073  -0.004   0.012   1.997   0.007  -0.004  -0.000  -0.001   0.003   0.233  -0.000
  0.004   0.062   0.005  -0.009  -1.819  -0.003   0.065  -0.003   0.007   2.321   0.001  -0.001   0.047  -0.000  -0.000  -0.003
 -0.001   0.006   0.820   0.011  -0.000   0.001  -0.002  -0.681  -0.004   0.001   2.281  -0.471   0.000   0.187   0.000  -0.000
  0.001  -0.002  -0.153  -0.003   0.001  -0.001  -0.000   0.096  -0.000  -0.001  -0.471   0.116  -0.000  -0.065  -0.000   0.000
  0.001  -0.241   0.002   0.001  -0.046  -0.000   0.234  -0.001  -0.001   0.047   0.000  -0.000   0.254  -0.000   0.000  -0.015
  0.000  -0.002  -0.282  -0.004   0.000  -0.000   0.002   0.345   0.003  -0.000   0.187  -0.065  -0.000   0.141  -0.000   0.000
 -0.045   0.001   0.003  -0.239   0.001   0.046  -0.001  -0.002   0.233  -0.000   0.000  -0.000   0.000  -0.000   0.254  -0.000
 -0.000   0.010   0.000  -0.000   0.003  -0.000  -0.017   0.000  -0.000  -0.003  -0.000   0.000  -0.015   0.000  -0.000   0.001
  0.000   0.000   0.000   0.000   0.000  -0.000  -0.000  -0.020  -0.000  -0.000  -0.020   0.006   0.000  -0.009   0.000  -0.000
  0.003  -0.000   0.000   0.010  -0.000  -0.003  -0.000   0.000  -0.017  -0.000  -0.000   0.000  -0.000   0.000  -0.015   0.000


------------------------ aborting loop because EDIFF is reached ----------------------------------------


    CHARGE:  cpu time    0.2397: real time    0.2397
    FORLOC:  cpu time    0.0102: real time    0.0102
    FORNL :  cpu time    0.9141: real time    0.9145
    FORCOR:  cpu time    0.0515: real time    0.0515
    FORHAR:  cpu time    0.0179: real time    0.0179
    MIXING:  cpu time    0.0030: real time    0.0030
    OFIELD:  cpu time    0.0000: real time    0.0000

 VOLUME and BASIS-vectors are now :
 -----------------------------------------------------------------------------
  energy-cutoff  :      350.00
  volume of cell :      742.39
      direct lattice vectors                 reciprocal lattice vectors
     5.643844236  0.000000000  0.000000000     0.177184195 -0.102297343  0.000000000
     2.821922118  4.887712483  0.000000000     0.000000000  0.204594686  0.000000000
     0.000000000  0.000000000 26.912269283     0.000000000  0.000000000  0.037157773

  length of vectors
     5.643844236  5.643844236 26.912269283     0.204594686  0.204594686  0.037157773


 FORCES acting on ions
    electron-ion (+dipol)            ewald-force                    non-local-force                 convergence-correction
 -----------------------------------------------------------------------------------------------
   0.246E+00 0.137E+00 0.268E+04   -.252E+00 -.146E+00 -.268E+04   0.361E-01 0.206E-01 -.129E+01   0.461E-02 0.841E-02 -.147E+00
   -.246E+00 0.131E+00 0.268E+04   0.252E+00 -.146E+00 -.268E+04   -.361E-01 0.204E-01 -.129E+01   -.457E-02 0.149E-01 -.151E+00
   -.527E-02 -.276E+00 0.268E+04   -.998E-04 0.292E+00 -.268E+04   -.217E-03 -.413E-01 -.128E+01   0.566E-02 -.143E-01 -.154E+00
   0.547E-02 0.867E-02 0.268E+04   0.946E-04 0.136E-03 -.268E+04   0.147E-03 0.255E-03 -.114E+01   -.573E-02 -.908E-02 -.167E+00
   0.209E-02 0.200E-02 0.102E+04   -.246E-02 -.276E-02 -.102E+04   -.552E-04 -.170E-04 -.464E+00   0.388E-03 0.788E-03 -.627E+00
   -.899E-03 0.437E+01 0.102E+04   0.129E-02 -.443E+01 -.102E+04   -.369E-04 -.113E-01 -.139E+00   -.371E-03 0.190E-01 -.651E+00
   0.378E+01 -.218E+01 0.102E+04   -.383E+01 0.222E+01 -.102E+04   -.971E-02 0.561E-02 -.139E+00   0.158E-01 -.101E-01 -.651E+00
   -.378E+01 -.218E+01 0.102E+04   0.383E+01 0.222E+01 -.102E+04   0.967E-02 0.563E-02 -.138E+00   -.158E-01 -.967E-02 -.651E+00
   -.174E+01 0.102E+01 -.638E+03   0.169E+01 -.984E+00 0.639E+03   -.439E-02 0.252E-02 0.589E+00   0.622E-01 -.471E-01 -.117E+01
   0.174E+01 0.101E+01 -.638E+03   -.169E+01 -.979E+00 0.639E+03   0.464E-02 0.263E-02 0.590E+00   -.619E-01 -.410E-01 -.117E+01
   -.893E-02 -.144E-01 -.677E+03   0.431E-02 0.697E-02 0.678E+03   0.106E-04 0.915E-04 -.475E+00   0.477E-02 0.757E-02 -.112E+01
   0.825E-02 -.202E+01 -.638E+03   -.329E-02 0.196E+01 0.639E+03   0.233E-04 -.523E-02 0.589E+00   -.514E-02 0.804E-01 -.116E+01
   0.706E+02 0.408E+02 -.230E+04   -.711E+02 -.411E+02 0.230E+04   0.452E+00 0.261E+00 -.763E+00   0.430E-01 0.286E-01 -.363E+00
   -.706E+02 0.408E+02 -.230E+04   0.711E+02 -.411E+02 0.230E+04   -.452E+00 0.261E+00 -.763E+00   -.432E-01 0.328E-01 -.366E+00
   0.986E-02 -.815E+02 -.230E+04   -.132E-01 0.821E+02 0.230E+04   -.182E-03 -.522E+00 -.762E+00   0.357E-02 -.559E-01 -.369E+00
   -.788E-02 0.858E-02 -.228E+04   0.122E-01 -.147E-02 0.228E+04   0.308E-03 0.686E-04 0.147E+01   -.454E-02 -.738E-02 -.516E+00
   0.278E-01 0.992E-02 -.104E+04   -.303E-01 -.123E-01 0.104E+04   0.139E-02 0.535E-03 0.762E+01   0.122E-02 0.184E-02 0.140E+00
   -.277E-01 -.178E-01 -.192E+04   0.359E-01 0.219E-01 0.198E+04   -.856E-02 -.464E-02 -.565E+02   0.475E-03 0.634E-03 0.122E+00
 -----------------------------------------------------------------------------------------------
   0.712E-02 0.383E-02 0.635E+02   0.178E-13 -.248E-13 0.136E-11   -.714E-02 -.414E-02 -.543E+02   0.529E-03 0.541E-03 -.917E+01
 
 
 POSITION                                       TOTAL-FORCE (eV/Angst)
 -----------------------------------------------------------------------------------
      0.00000      0.00000     10.00000         0.034680      0.020089     -0.105630
      2.82192      0.00000     10.00000        -0.034711      0.020166     -0.106972
      1.41096      2.44386     10.00000         0.000048     -0.040191     -0.108122
      4.23288      2.44386     10.00000        -0.000053     -0.000037     -0.214402
      1.41096      0.81462     12.30409        -0.000060     -0.000001      0.217248
      4.23288      0.81462     12.30409        -0.000048     -0.056536      0.124876
      2.82192      3.25847     12.30409        -0.048990      0.028279      0.124995
      5.64384      3.25847     12.30409         0.048940      0.028305      0.125126
      5.65134      1.62488     14.59698         0.008417     -0.005287      0.002171
      2.81436      1.62487     14.59696        -0.008289     -0.004994      0.001499
      7.05480      4.07308     14.66180         0.000135      0.000220     -0.004374
      4.23286      4.08177     14.59700        -0.000193      0.009961      0.002640
      8.44957      4.87833     17.03151        -0.016472     -0.009306     -0.028383
      5.66012      4.87831     17.03141         0.016421     -0.009279     -0.029060
      7.05483      2.46261     17.03135        -0.000003      0.018723     -0.029184
      4.23287      2.44384     16.85991         0.000051     -0.000216      0.011887
      1.41109      0.81469     18.36782         0.000047     -0.000017      0.034720
      1.41126      0.81479     19.56765         0.000077      0.000120     -0.019035
 -----------------------------------------------------------------------------------
    total drift:                                0.000513      0.000224      0.011102


--------------------------------------------------------------------------------------------------------



  FREE ENERGIE OF THE ION-ELECTRON SYSTEM (eV)
  ---------------------------------------------------
  free  energy   TOTEN  =       -98.78712480 eV

  energy  without entropy=      -98.76749468  energy(sigma->0) =      -98.78058143
 


--------------------------------------------------------------------------------------------------------


    POTLOK:  cpu time    0.0507: real time    0.0511


--------------------------------------------------------------------------------------------------------


     LOOP+:  cpu time   79.5590: real time   79.6536
    4ORBIT:  cpu time    0.0000: real time    0.0000

volume of typ            1:    30.5 %

volume of typ            2:     0.3 %

volume of typ            3:     0.3 %
 
total charge     
 
# of ion       s       p       d       tot
------------------------------------------
    1        0.569   0.387   7.861   8.817
    2        0.569   0.387   7.862   8.818
    3        0.569   0.387   7.863   8.819
    4        0.566   0.386   7.864   8.817
    5        0.562   0.502   7.864   8.928
    6        0.553   0.491   7.878   8.923
    7        0.553   0.491   7.879   8.924
    8        0.553   0.491   7.880   8.925
    9        0.556   0.484   7.871   8.910
   10        0.556   0.484   7.870   8.910
   11        0.554   0.469   7.897   8.919
   12        0.556   0.484   7.871   8.911
   13        0.569   0.459   7.917   8.945
   14        0.569   0.459   7.917   8.945
   15        0.569   0.459   7.917   8.945
   16        0.565   0.391   7.904   8.859
   17        0.779   1.423   0.088   2.291
   18        1.439   3.175   0.040   4.653
--------------------------------------------------
tot          11.21   11.81  126.24  149.26
 

 total amount of memory used by VASP MPI-rank0    54955. kBytes
=======================================================================

   base      :      30000. kBytes
   nonlr-proj:       2172. kBytes
   fftplans  :       2593. kBytes
   grid      :       4625. kBytes
   one-center:         77. kBytes
   wavefun   :      15488. kBytes
 
  
  
 General timing and accounting informations for this job:
 ========================================================
  
                  Total CPU time used (sec):       82.685
                            User time (sec):       81.099
                          System time (sec):        1.586
                         Elapsed time (sec):       83.719
  
                   Maximum memory used (kb):      102324.
                   Average memory used (kb):           0.
  
                          Minor page faults:        40492
                          Major page faults:           83
                 Voluntary context switches:          917
