PROCAR new format
# of k-points:   13         # of bands:  104         # of ions:   18

 k-point     1 :    0.00000000 0.00000000 0.00000000     weight = 0.04000000

band     1 # energy  -22.38803498 # occ.  2.00000000
 
ion      s      p      d    tot
    1  0.000  0.000  0.000  0.000
    2  0.000  0.000  0.000  0.000
    3  0.000  0.000  0.000  0.000
    4  0.000  0.000  0.000  0.000
    5  0.000  0.000  0.000  0.000
    6  0.000  0.000  0.000  0.000
    7  0.000  0.000  0.000  0.000
    8  0.000  0.000  0.000  0.000
    9  0.000  0.000  0.000  0.000
   10  0.000  0.000  0.000  0.000
   11  0.000  0.000  0.000  0.000
   12  0.000  0.000  0.000  0.000
   13  0.000  0.000  0.001  0.001
   14  0.000  0.000  0.001  0.001
   15  0.000  0.000  0.001  0.001
   16  0.000  0.000  0.000  0.000
   17  0.133  0.087  0.013  0.233
   18  0.550  0.075  0.005  0.630
tot    0.684  0.164  0.019  0.867
 
band     2 # energy  -10.83086711 # occ.  2.00000000
 
ion      s      p      d    tot
    1  0.000  0.000  0.000  0.000
    2  0.000  0.000  0.000  0.000
    3  0.000  0.000  0.000  0.000
    4  0.000  0.000  0.000  0.000
    5  0.000  0.000  0.000  0.000
    6  0.000  0.000  0.000  0.000
    7  0.000  0.000  0.000  0.000
    8  0.000  0.000  0.000  0.000
    9  0.002  0.000  0.000  0.003
   10  0.002  0.000  0.000  0.003
   11  0.007  0.001  0.001  0.009
   12  0.002  0.000  0.000  0.003
   13  0.059  0.013  0.058  0.130
   14  0.059  0.013  0.058  0.130
   15  0.059  0.013  0.058  0.130
   16  0.006  0.000  0.001  0.007
   17  0.190  0.055  0.000  0.245
   18  0.064  0.019  0.000  0.083
tot    0.454  0.114  0.176  0.743
 
band     3 # energy   -9.10246239 # occ.  2.00000000
 
ion      s      p      d    tot
    1  0.023  0.002  0.000  0.025
    2  0.023  0.002  0.000  0.025
    3  0.023  0.002  0.000  0.025
    4  0.022  0.002  0.000  0.024
    5  0.083  0.000  0.001  0.084
    6  0.078  0.000  0.001  0.079
    7  0.078  0.000  0.001  0.079
    8  0.078  0.000  0.001  0.079
    9  0.061  0.001  0.000  0.062
   10  0.060  0.001  0.000  0.062
   11  0.051  0.002  0.001  0.053
   12  0.061  0.001  0.000  0.062
   13  0.002  0.003  0.004  0.009
   14  0.002  0.003  0.004  0.009
   15  0.002  0.003  0.004  0.009
   16  0.010  0.002  0.000  0.012
   17  0.009  0.001  0.000  0.009
   18  0.003  0.003  0.000  0.007
tot    0.667  0.029  0.018  0.714
 
band     4 # energy   -7.79215734 # occ.  2.00000000
 
ion      s      p      d    tot
    1  0.045  0.001  0.004  0.050
    2  0.045  0.001  0.004  0.050
    3  0.045  0.001  0.004  0.050
    4  0.045  0.001  0.004  0.050
    5  0.017  0.007  0.006  0.030
    6  0.019  0.006  0.004  0.030
    7  0.019  0.006  0.004  0.030
    8  0.019  0.006  0.004  0.030
    9  0.048  0.003  0.010  0.061
   10  0.048  0.003  0.010  0.061
   11  0.039  0.002  0.013  0.054
   12  0.048  0.003  0.010  0.061
   13  0.017  0.004  0.007  0.027
   14  0.017  0.004  0.007  0.027
   15  0.017  0.004  0.007  0.027
   16  0.040  0.002  0.000  0.043
   17  0.014  0.000  0.000  0.014
   18  0.010  0.022  0.000  0.032
tot    0.553  0.076  0.097  0.727
 
band     5 # energy   -6.98910825 # occ.  2.00000000
 
ion      s      p      d    tot
    1  0.010  0.000  0.005  0.015
    2  0.010  0.000  0.005  0.015
    3  0.010  0.000  0.005  0.015
    4  0.011  0.000  0.004  0.015
    5  0.001  0.002  0.000  0.003
    6  0.000  0.002  0.000  0.002
    7  0.000  0.002  0.000  0.002
    8  0.000  0.002  0.000  0.002
    9  0.010  0.001  0.010  0.021
   10  0.010  0.001  0.010  0.021
   11  0.007  0.001  0.014  0.023
   12  0.010  0.001  0.010  0.021
   13  0.026  0.000  0.037  0.063
   14  0.026  0.000  0.037  0.063
   15  0.026  0.000  0.037  0.063
   16  0.010  0.000  0.013  0.024
   17  0.028  0.060  0.001  0.089
   18  0.071  0.259  0.004  0.334
tot    0.267  0.331  0.195  0.792
 
band     6 # energy   -6.78811247 # occ.  2.00000000
 
ion      s      p      d    tot
    1  0.047  0.000  0.042  0.089
    2  0.047  0.000  0.042  0.089
    3  0.047  0.000  0.042  0.089
    4  0.045  0.000  0.041  0.086
    5  0.024  0.001  0.067  0.092
    6  0.027  0.001  0.058  0.086
    7  0.027  0.001  0.058  0.086
    8  0.027  0.001  0.058  0.086
    9  0.004  0.001  0.016  0.022
   10  0.004  0.001  0.016  0.022
   11  0.003  0.001  0.016  0.020
   12  0.004  0.001  0.016  0.022
   13  0.000  0.000  0.004  0.004
   14  0.000  0.000  0.004  0.004
   15  0.000  0.000  0.004  0.004
   16  0.002  0.000  0.001  0.003
   17  0.000  0.004  0.000  0.004
   18  0.003  0.011  0.000  0.014
tot    0.311  0.026  0.484  0.821
 
band     7 # energy   -6.67095047 # occ.  2.00000000
 
ion      s      p      d    tot
    1  0.000  0.000  0.001  0.001
    2  0.000  0.000  0.002  0.002
    3  0.000  0.000  0.002  0.003
    4  0.000  0.000  0.003  0.003
    5  0.000  0.000  0.019  0.019
    6  0.002  0.000  0.015  0.017
    7  0.004  0.000  0.013  0.017
    8  0.013  0.000  0.003  0.016
    9  0.001  0.000  0.023  0.023
   10  0.002  0.000  0.006  0.008
   11  0.000  0.001  0.039  0.040
   12  0.000  0.000  0.026  0.026
   13  0.055  0.003  0.033  0.090
   14  0.017  0.001  0.088  0.106
   15  0.011  0.001  0.097  0.109
   16  0.000  0.000  0.046  0.046
   17  0.000  0.109  0.000  0.109
   18  0.000  0.110  0.002  0.112
tot    0.105  0.225  0.417  0.748
 
band     8 # energy   -6.67081512 # occ.  2.00000000
 
ion      s      p      d    tot
    1  0.000  0.000  0.003  0.003
    2  0.000  0.000  0.001  0.002
    3  0.000  0.000  0.001  0.002
    4  0.000  0.000  0.003  0.003
    5  0.000  0.000  0.019  0.019
    6  0.010  0.000  0.006  0.017
    7  0.009  0.000  0.008  0.017
    8  0.000  0.000  0.018  0.018
    9  0.001  0.000  0.014  0.015
   10  0.000  0.000  0.030  0.030
   11  0.000  0.001  0.039  0.040
   12  0.002  0.000  0.011  0.012
   13  0.000  0.001  0.112  0.113
   14  0.038  0.002  0.058  0.097
   15  0.044  0.002  0.048  0.095
   16  0.000  0.000  0.046  0.046
   17  0.000  0.108  0.000  0.109
   18  0.000  0.110  0.002  0.112
tot    0.105  0.225  0.417  0.748
 
band     9 # energy   -6.51435459 # occ.  2.00000000
 
ion      s      p      d    tot
    1  0.002  0.001  0.009  0.012
    2  0.002  0.001  0.009  0.012
    3  0.002  0.001  0.009  0.012
    4  0.005  0.001  0.003  0.010
    5  0.048  0.000  0.002  0.051
    6  0.005  0.001  0.059  0.064
    7  0.005  0.001  0.059  0.064
    8  0.005  0.001  0.059  0.064
    9  0.000  0.001  0.072  0.072
   10  0.000  0.001  0.072  0.072
   11  0.064  0.001  0.000  0.065
   12  0.000  0.001  0.072  0.072
   13  0.005  0.000  0.047  0.052
   14  0.005  0.000  0.047  0.052
   15  0.005  0.000  0.047  0.052
   16  0.069  0.001  0.005  0.075
   17  0.000  0.009  0.000  0.010
   18  0.005  0.025  0.000  0.031
tot    0.224  0.045  0.572  0.841
 
band    10 # energy   -6.41037651 # occ.  2.00000000
 
ion      s      p      d    tot
    1  0.001  0.000  0.016  0.018
    2  0.007  0.002  0.012  0.021
    3  0.014  0.003  0.007  0.024
    4  0.000  0.000  0.017  0.017
    5  0.000  0.000  0.099  0.100
    6  0.036  0.000  0.022  0.058
    7  0.018  0.000  0.057  0.075
    8  0.003  0.000  0.089  0.092
    9  0.031  0.001  0.055  0.087
   10  0.005  0.001  0.088  0.093
   11  0.000  0.001  0.086  0.086
   12  0.059  0.001  0.020  0.080
   13  0.000  0.001  0.021  0.021
   14  0.000  0.001  0.016  0.017
   15  0.000  0.002  0.011  0.013
   16  0.000  0.001  0.017  0.019
   17  0.000  0.011  0.000  0.011
   18  0.000  0.012  0.000  0.012
tot    0.174  0.038  0.632  0.843
 
band    11 # energy   -6.41034816 # occ.  2.00000000
 
ion      s      p      d    tot
    1  0.014  0.003  0.007  0.024
    2  0.008  0.002  0.012  0.021
    3  0.001  0.000  0.016  0.018
    4  0.000  0.000  0.017  0.017
    5  0.000  0.000  0.099  0.100
    6  0.002  0.000  0.090  0.092
    7  0.019  0.000  0.055  0.074
    8  0.035  0.000  0.023  0.058
    9  0.032  0.001  0.054  0.087
   10  0.058  0.001  0.021  0.081
   11  0.000  0.001  0.086  0.086
   12  0.004  0.000  0.089  0.093
   13  0.000  0.002  0.011  0.013
   14  0.000  0.001  0.016  0.017
   15  0.000  0.000  0.021  0.021
   16  0.000  0.001  0.017  0.019
   17  0.000  0.011  0.000  0.011
   18  0.000  0.012  0.000  0.012
tot    0.174  0.037  0.632  0.843
 
band    12 # energy   -6.31733432 # occ.  2.00000000
 
ion      s      p      d    tot
    1  0.000  0.000  0.015  0.015
    2  0.000  0.000  0.015  0.015
    3  0.000  0.000  0.015  0.015
    4  0.011  0.001  0.000  0.012
    5  0.002  0.001  0.024  0.026
    6  0.000  0.000  0.028  0.028
    7  0.000  0.000  0.028  0.028
    8  0.000  0.000  0.028  0.028
    9  0.010  0.001  0.121  0.132
   10  0.010  0.001  0.121  0.132
   11  0.028  0.000  0.000  0.028
   12  0.010  0.001  0.121  0.132
   13  0.005  0.002  0.041  0.049
   14  0.005  0.002  0.041  0.049
   15  0.005  0.002  0.041  0.049
   16  0.027  0.001  0.049  0.078
   17  0.000  0.010  0.000  0.010
   18  0.003  0.016  0.000  0.019
tot    0.118  0.040  0.690  0.849
 
band    13 # energy   -6.25778116 # occ.  2.00000000
 
ion      s      p      d    tot
    1  0.000  0.001  0.018  0.020
    2  0.000  0.001  0.018  0.020
    3  0.000  0.001  0.018  0.020
    4  0.000  0.000  0.003  0.003
    5  0.051  0.000  0.000  0.052
    6  0.006  0.000  0.110  0.116
    7  0.006  0.000  0.110  0.116
    8  0.006  0.000  0.110  0.117
    9  0.000  0.002  0.044  0.046
   10  0.000  0.002  0.044  0.046
   11  0.010  0.000  0.006  0.016
   12  0.000  0.002  0.044  0.046
   13  0.006  0.000  0.033  0.039
   14  0.006  0.000  0.033  0.039
   15  0.006  0.000  0.033  0.039
   16  0.020  0.000  0.021  0.041
   17  0.000  0.016  0.000  0.016
   18  0.006  0.035  0.000  0.042
tot    0.124  0.064  0.646  0.835
 
band    14 # energy   -6.23722664 # occ.  2.00000000
 
ion      s      p      d    tot
    1  0.000  0.001  0.022  0.023
    2  0.000  0.001  0.016  0.017
    3  0.001  0.000  0.008  0.009
    4  0.000  0.001  0.023  0.024
    5  0.000  0.000  0.153  0.153
    6  0.033  0.000  0.032  0.065
    7  0.015  0.000  0.091  0.107
    8  0.003  0.000  0.133  0.136
    9  0.005  0.001  0.048  0.054
   10  0.001  0.002  0.068  0.070
   11  0.000  0.001  0.063  0.065
   12  0.011  0.001  0.019  0.031
   13  0.000  0.001  0.005  0.007
   14  0.002  0.001  0.005  0.008
   15  0.004  0.001  0.006  0.011
   16  0.000  0.001  0.003  0.004
   17  0.000  0.020  0.000  0.020
   18  0.000  0.025  0.000  0.026
tot    0.077  0.057  0.695  0.829
 
band    15 # energy   -6.23716535 # occ.  2.00000000
 
ion      s      p      d    tot
    1  0.001  0.000  0.009  0.010
    2  0.000  0.001  0.015  0.016
    3  0.000  0.001  0.023  0.024
    4  0.000  0.001  0.023  0.024
    5  0.000  0.000  0.153  0.153
    6  0.002  0.000  0.139  0.140
    7  0.019  0.000  0.079  0.098
    8  0.031  0.000  0.038  0.069
    9  0.007  0.001  0.042  0.049
   10  0.011  0.001  0.022  0.033
   11  0.000  0.001  0.063  0.065
   12  0.001  0.002  0.070  0.073
   13  0.004  0.001  0.006  0.011
   14  0.002  0.001  0.006  0.009
   15  0.000  0.001  0.005  0.006
   16  0.000  0.001  0.003  0.004
   17  0.000  0.020  0.000  0.020
   18  0.000  0.025  0.000  0.026
tot    0.077  0.057  0.695  0.829
 
band    16 # energy   -5.84196697 # occ.  2.00000000
 
ion      s      p      d    tot
    1  0.001  0.001  0.010  0.012
    2  0.001  0.001  0.010  0.012
    3  0.001  0.001  0.010  0.012
    4  0.012  0.004  0.016  0.031
    5  0.001  0.002  0.050  0.053
    6  0.000  0.000  0.129  0.130
    7  0.000  0.000  0.129  0.130
    8  0.000  0.000  0.129  0.130
    9  0.000  0.000  0.086  0.087
   10  0.000  0.000  0.086  0.087
   11  0.000  0.002  0.057  0.059
   12  0.000  0.000  0.086  0.087
   13  0.000  0.001  0.011  0.012
   14  0.000  0.001  0.011  0.012
   15  0.000  0.001  0.011  0.012
   16  0.013  0.002  0.007  0.022
   17  0.000  0.000  0.000  0.000
   18  0.000  0.000  0.000  0.000
tot    0.031  0.017  0.838  0.886
 
band    17 # energy   -5.80872615 # occ.  2.00000000
 
ion      s      p      d    tot
    1  0.000  0.002  0.021  0.023
    2  0.003  0.002  0.016  0.021
    3  0.006  0.002  0.011  0.019
    4  0.000  0.001  0.021  0.022
    5  0.000  0.000  0.096  0.096
    6  0.003  0.001  0.058  0.062
    7  0.002  0.001  0.072  0.075
    8  0.000  0.000  0.088  0.088
    9  0.000  0.001  0.093  0.094
   10  0.000  0.001  0.109  0.111
   11  0.000  0.001  0.104  0.105
   12  0.000  0.001  0.078  0.079
   13  0.000  0.001  0.024  0.024
   14  0.000  0.001  0.021  0.023
   15  0.000  0.002  0.019  0.021
   16  0.000  0.001  0.020  0.020
   17  0.000  0.001  0.000  0.001
   18  0.000  0.002  0.000  0.002
tot    0.016  0.019  0.849  0.885
 
band    18 # energy   -5.80870550 # occ.  2.00000000
 
ion      s      p      d    tot
    1  0.006  0.002  0.011  0.019
    2  0.003  0.002  0.016  0.021
    3  0.000  0.002  0.021  0.023
    4  0.000  0.001  0.021  0.022
    5  0.000  0.000  0.096  0.096
    6  0.000  0.000  0.087  0.088
    7  0.002  0.001  0.073  0.075
    8  0.003  0.001  0.058  0.062
    9  0.000  0.001  0.094  0.095
   10  0.000  0.001  0.077  0.078
   11  0.000  0.001  0.104  0.105
   12  0.000  0.001  0.109  0.110
   13  0.000  0.002  0.019  0.021
   14  0.000  0.001  0.021  0.023
   15  0.000  0.001  0.024  0.024
   16  0.000  0.001  0.020  0.020
   17  0.000  0.001  0.000  0.001
   18  0.000  0.002  0.000  0.002
tot    0.016  0.019  0.849  0.885
 
band    19 # energy   -5.67242667 # occ.  2.00000000
 
ion      s      p      d    tot
    1  0.006  0.000  0.181  0.187
    2  0.006  0.000  0.181  0.187
    3  0.006  0.000  0.182  0.187
    4  0.053  0.000  0.021  0.075
    5  0.001  0.003  0.026  0.030
    6  0.000  0.003  0.010  0.013
    7  0.000  0.003  0.010  0.013
    8  0.000  0.003  0.010  0.013
    9  0.001  0.000  0.032  0.034
   10  0.001  0.000  0.032  0.034
   11  0.012  0.000  0.000  0.012
   12  0.001  0.000  0.033  0.034
   13  0.000  0.000  0.013  0.014
   14  0.000  0.000  0.013  0.014
   15  0.000  0.000  0.013  0.014
   16  0.000  0.000  0.002  0.002
   17  0.000  0.001  0.000  0.001
   18  0.000  0.002  0.000  0.003
tot    0.089  0.015  0.761  0.864
 
band    20 # energy   -5.65731197 # occ.  2.00000000
 
ion      s      p      d    tot
    1  0.044  0.000  0.053  0.097
    2  0.022  0.000  0.131  0.153
    3  0.004  0.000  0.197  0.201
    4  0.000  0.000  0.207  0.208
    5  0.000  0.003  0.004  0.006
    6  0.000  0.003  0.006  0.009
    7  0.001  0.003  0.016  0.020
    8  0.003  0.003  0.028  0.033
    9  0.006  0.000  0.020  0.026
   10  0.011  0.000  0.006  0.017
   11  0.000  0.000  0.032  0.032
   12  0.001  0.000  0.032  0.033
   13  0.001  0.000  0.001  0.002
   14  0.000  0.000  0.004  0.005
   15  0.000  0.001  0.007  0.008
   16  0.000  0.001  0.010  0.011
   17  0.000  0.002  0.000  0.002
   18  0.000  0.003  0.000  0.003
tot    0.093  0.019  0.752  0.865
 
band    21 # energy   -5.65711673 # occ.  2.00000000
 
ion      s      p      d    tot
    1  0.003  0.000  0.201  0.204
    2  0.025  0.000  0.123  0.148
    3  0.043  0.000  0.056  0.100
    4  0.000  0.000  0.207  0.208
    5  0.000  0.003  0.004  0.006
    6  0.002  0.003  0.027  0.032
    7  0.001  0.003  0.017  0.021
    8  0.000  0.003  0.005  0.008
    9  0.006  0.000  0.019  0.025
   10  0.001  0.000  0.033  0.034
   11  0.000  0.000  0.032  0.032
   12  0.011  0.000  0.006  0.018
   13  0.000  0.001  0.007  0.008
   14  0.000  0.000  0.004  0.005
   15  0.001  0.000  0.001  0.002
   16  0.000  0.001  0.010  0.011
   17  0.000  0.002  0.000  0.002
   18  0.000  0.003  0.000  0.003
tot    0.093  0.019  0.752  0.865
 
band    22 # energy   -5.42141767 # occ.  2.00000000
 
ion      s      p      d    tot
    1  0.000  0.000  0.001  0.001
    2  0.001  0.000  0.002  0.003
    3  0.002  0.000  0.002  0.005
    4  0.000  0.000  0.001  0.001
    5  0.000  0.000  0.020  0.020
    6  0.001  0.000  0.009  0.011
    7  0.001  0.000  0.014  0.015
    8  0.000  0.000  0.020  0.020
    9  0.001  0.002  0.010  0.014
   10  0.000  0.000  0.012  0.012
   11  0.000  0.000  0.006  0.007
   12  0.002  0.004  0.009  0.014
   13  0.001  0.001  0.142  0.144
   14  0.010  0.003  0.115  0.129
   15  0.018  0.005  0.093  0.116
   16  0.000  0.000  0.181  0.181
   17  0.000  0.041  0.001  0.043
   18  0.000  0.094  0.001  0.095
tot    0.037  0.151  0.641  0.829
 
band    23 # energy   -5.42137467 # occ.  2.00000000
 
ion      s      p      d    tot
    1  0.002  0.000  0.003  0.005
    2  0.001  0.000  0.002  0.003
    3  0.000  0.000  0.001  0.001
    4  0.000  0.000  0.001  0.001
    5  0.000  0.000  0.020  0.020
    6  0.000  0.000  0.019  0.020
    7  0.001  0.000  0.015  0.016
    8  0.001  0.000  0.009  0.011
    9  0.001  0.002  0.010  0.013
   10  0.002  0.004  0.009  0.014
   11  0.000  0.000  0.006  0.007
   12  0.000  0.000  0.012  0.013
   13  0.019  0.005  0.092  0.115
   14  0.009  0.003  0.118  0.130
   15  0.002  0.001  0.141  0.143
   16  0.000  0.000  0.181  0.181
   17  0.000  0.041  0.001  0.043
   18  0.000  0.094  0.001  0.095
tot    0.037  0.151  0.641  0.829
 
band    24 # energy   -5.05216776 # occ.  2.00000000
 
ion      s      p      d    tot
    1  0.000  0.002  0.056  0.057
    2  0.000  0.002  0.056  0.057
    3  0.000  0.002  0.056  0.057
    4  0.000  0.001  0.014  0.015
    5  0.003  0.004  0.010  0.018
    6  0.001  0.001  0.040  0.042
    7  0.001  0.001  0.040  0.042
    8  0.001  0.001  0.040  0.042
    9  0.000  0.005  0.022  0.027
   10  0.000  0.005  0.022  0.027
   11  0.001  0.002  0.002  0.004
   12  0.000  0.005  0.022  0.027
   13  0.005  0.002  0.111  0.118
   14  0.005  0.002  0.111  0.118
   15  0.005  0.002  0.111  0.118
   16  0.013  0.001  0.003  0.018
   17  0.001  0.017  0.001  0.020
   18  0.002  0.033  0.000  0.035
tot    0.038  0.088  0.719  0.845
 
band    25 # energy   -4.70644137 # occ.  2.00000000
 
ion      s      p      d    tot
    1  0.000  0.001  0.028  0.030
    2  0.000  0.002  0.059  0.061
    3  0.000  0.002  0.078  0.080
    4  0.000  0.002  0.083  0.085
    5  0.000  0.005  0.034  0.039
    6  0.000  0.005  0.034  0.039
    7  0.001  0.006  0.025  0.032
    8  0.001  0.008  0.010  0.019
    9  0.000  0.003  0.053  0.057
   10  0.001  0.004  0.022  0.027
   11  0.000  0.003  0.066  0.070
   12  0.000  0.003  0.073  0.076
   13  0.000  0.005  0.014  0.019
   14  0.000  0.004  0.037  0.040
   15  0.000  0.003  0.051  0.054
   16  0.000  0.004  0.069  0.073
   17  0.000  0.008  0.000  0.009
   18  0.000  0.030  0.000  0.031
tot    0.005  0.100  0.737  0.841
 
band    26 # energy   -4.70632772 # occ.  2.00000000
 
ion      s      p      d    tot
    1  0.000  0.002  0.082  0.084
    2  0.000  0.002  0.051  0.053
    3  0.000  0.002  0.032  0.034
    4  0.000  0.002  0.083  0.085
    5  0.000  0.005  0.034  0.039
    6  0.001  0.008  0.012  0.021
    7  0.001  0.007  0.021  0.029
    8  0.000  0.005  0.036  0.041
    9  0.001  0.003  0.046  0.050
   10  0.000  0.003  0.076  0.079
   11  0.000  0.003  0.066  0.070
   12  0.001  0.004  0.026  0.031
   13  0.000  0.003  0.054  0.056
   14  0.000  0.004  0.031  0.035
   15  0.000  0.005  0.017  0.022
   16  0.000  0.004  0.069  0.073
   17  0.000  0.008  0.000  0.009
   18  0.000  0.030  0.000  0.031
tot    0.005  0.100  0.736  0.841
 
band    27 # energy   -4.28093394 # occ.  2.00000000
 
ion      s      p      d    tot
    1  0.000  0.001  0.080  0.081
    2  0.000  0.001  0.080  0.081
    3  0.000  0.001  0.080  0.081
    4  0.001  0.000  0.001  0.003
    5  0.001  0.010  0.005  0.016
    6  0.000  0.007  0.003  0.010
    7  0.000  0.007  0.003  0.010
    8  0.000  0.007  0.003  0.010
    9  0.000  0.000  0.062  0.062
   10  0.000  0.000  0.062  0.062
   11  0.004  0.000  0.009  0.013
   12  0.000  0.000  0.062  0.062
   13  0.001  0.008  0.084  0.092
   14  0.001  0.008  0.084  0.092
   15  0.001  0.008  0.084  0.092
   16  0.000  0.003  0.032  0.035
   17  0.004  0.020  0.001  0.025
   18  0.001  0.031  0.000  0.031
tot    0.013  0.112  0.736  0.861
 
band    28 # energy   -3.87781170 # occ.  2.00000000
 
ion      s      p      d    tot
    1  0.000  0.000  0.058  0.059
    2  0.000  0.001  0.027  0.028
    3  0.000  0.001  0.032  0.033
    4  0.000  0.000  0.060  0.061
    5  0.000  0.001  0.012  0.012
    6  0.001  0.005  0.008  0.014
    7  0.001  0.006  0.007  0.014
    8  0.000  0.001  0.014  0.015
    9  0.001  0.006  0.045  0.053
   10  0.000  0.001  0.051  0.052
   11  0.000  0.001  0.035  0.036
   12  0.001  0.006  0.046  0.053
   13  0.000  0.000  0.146  0.146
   14  0.001  0.000  0.067  0.068
   15  0.001  0.000  0.078  0.080
   16  0.000  0.001  0.114  0.115
   17  0.000  0.002  0.001  0.003
   18  0.000  0.026  0.000  0.027
tot    0.006  0.057  0.803  0.866
 
band    29 # energy   -3.87773634 # occ.  2.00000000
 
ion      s      p      d    tot
    1  0.000  0.001  0.020  0.021
    2  0.000  0.000  0.051  0.051
    3  0.000  0.000  0.047  0.047
    4  0.000  0.000  0.060  0.061
    5  0.000  0.001  0.012  0.012
    6  0.000  0.003  0.012  0.014
    7  0.000  0.002  0.012  0.014
    8  0.001  0.007  0.006  0.014
    9  0.000  0.002  0.050  0.052
   10  0.001  0.008  0.044  0.053
   11  0.000  0.001  0.035  0.035
   12  0.000  0.003  0.049  0.053
   13  0.001  0.001  0.048  0.050
   14  0.000  0.000  0.127  0.127
   15  0.000  0.000  0.115  0.116
   16  0.000  0.001  0.114  0.115
   17  0.000  0.002  0.001  0.003
   18  0.000  0.026  0.000  0.027
tot    0.006  0.057  0.803  0.866
 
band    30 # energy   -3.80974914 # occ.  2.00000000
 
ion      s      p      d    tot
    1  0.000  0.000  0.014  0.014
    2  0.000  0.000  0.014  0.014
    3  0.000  0.000  0.014  0.014
    4  0.002  0.000  0.001  0.003
    5  0.000  0.000  0.011  0.012
    6  0.000  0.003  0.058  0.061
    7  0.000  0.003  0.059  0.061
    8  0.000  0.003  0.059  0.062
    9  0.000  0.000  0.053  0.053
   10  0.000  0.000  0.053  0.053
   11  0.008  0.001  0.346  0.355
   12  0.000  0.000  0.053  0.054
   13  0.000  0.008  0.039  0.047
   14  0.000  0.008  0.039  0.047
   15  0.000  0.008  0.039  0.047
   16  0.000  0.000  0.000  0.001
   17  0.002  0.003  0.000  0.005
   18  0.000  0.000  0.000  0.000
tot    0.014  0.038  0.853  0.905
 
band    31 # energy   -3.75604608 # occ.  2.00000000
 
ion      s      p      d    tot
    1  0.000  0.001  0.033  0.034
    2  0.000  0.001  0.056  0.057
    3  0.000  0.000  0.075  0.075
    4  0.000  0.000  0.077  0.077
    5  0.000  0.001  0.085  0.086
    6  0.000  0.001  0.085  0.086
    7  0.001  0.001  0.097  0.099
    8  0.001  0.000  0.113  0.114
    9  0.000  0.001  0.060  0.061
   10  0.000  0.001  0.074  0.076
   11  0.000  0.000  0.042  0.042
   12  0.000  0.000  0.048  0.048
   13  0.000  0.000  0.012  0.012
   14  0.000  0.000  0.018  0.018
   15  0.000  0.000  0.023  0.023
   16  0.000  0.000  0.003  0.003
   17  0.000  0.000  0.000  0.000
   18  0.000  0.003  0.000  0.003
tot    0.003  0.011  0.901  0.915
 
band    32 # energy   -3.75599064 # occ.  2.00000000
 
ion      s      p      d    tot
    1  0.000  0.000  0.076  0.077
    2  0.000  0.001  0.053  0.054
    3  0.000  0.001  0.035  0.036
    4  0.000  0.000  0.077  0.078
    5  0.000  0.001  0.085  0.086
    6  0.001  0.000  0.111  0.112
    7  0.001  0.001  0.099  0.101
    8  0.000  0.001  0.085  0.086
    9  0.000  0.001  0.061  0.062
   10  0.000  0.000  0.047  0.047
   11  0.000  0.000  0.042  0.042
   12  0.000  0.001  0.074  0.076
   13  0.000  0.000  0.023  0.023
   14  0.000  0.000  0.017  0.017
   15  0.000  0.000  0.012  0.012
   16  0.000  0.000  0.003  0.003
   17  0.000  0.000  0.000  0.000
   18  0.000  0.003  0.000  0.003
tot    0.003  0.011  0.901  0.915
 
band    33 # energy   -3.72992511 # occ.  2.00000000
 
ion      s      p      d    tot
    1  0.001  0.000  0.044  0.045
    2  0.001  0.000  0.044  0.045
    3  0.001  0.000  0.044  0.045
    4  0.000  0.001  0.018  0.019
    5  0.001  0.001  0.186  0.188
    6  0.000  0.002  0.051  0.054
    7  0.000  0.002  0.051  0.053
    8  0.000  0.002  0.051  0.053
    9  0.001  0.001  0.107  0.108
   10  0.001  0.001  0.107  0.109
   11  0.001  0.001  0.009  0.012
   12  0.001  0.001  0.106  0.107
   13  0.000  0.001  0.018  0.020
   14  0.000  0.001  0.018  0.020
   15  0.000  0.001  0.018  0.020
   16  0.001  0.002  0.017  0.020
   17  0.000  0.000  0.000  0.001
   18  0.000  0.000  0.000  0.000
tot    0.007  0.019  0.891  0.918
 
band    34 # energy   -3.58479252 # occ.  2.00000000
 
ion      s      p      d    tot
    1  0.000  0.003  0.071  0.074
    2  0.000  0.003  0.071  0.074
    3  0.000  0.003  0.071  0.074
    4  0.000  0.002  0.051  0.053
    5  0.003  0.002  0.068  0.074
    6  0.003  0.001  0.078  0.081
    7  0.003  0.001  0.078  0.081
    8  0.003  0.001  0.078  0.081
    9  0.001  0.007  0.009  0.017
   10  0.001  0.007  0.009  0.017
   11  0.000  0.005  0.001  0.006
   12  0.001  0.007  0.009  0.017
   13  0.001  0.001  0.058  0.060
   14  0.001  0.001  0.058  0.060
   15  0.001  0.001  0.058  0.060
   16  0.001  0.003  0.056  0.060
   17  0.000  0.001  0.000  0.001
   18  0.000  0.002  0.000  0.002
tot    0.020  0.051  0.823  0.895
 
band    35 # energy   -3.50670097 # occ.  2.00000000
 
ion      s      p      d    tot
    1  0.000  0.000  0.016  0.016
    2  0.000  0.000  0.014  0.014
    3  0.000  0.000  0.013  0.013
    4  0.000  0.000  0.012  0.012
    5  0.000  0.000  0.129  0.129
    6  0.000  0.000  0.123  0.123
    7  0.000  0.000  0.122  0.122
    8  0.000  0.000  0.120  0.120
    9  0.000  0.000  0.076  0.076
   10  0.000  0.000  0.064  0.064
   11  0.000  0.000  0.097  0.097
   12  0.000  0.000  0.084  0.084
   13  0.000  0.000  0.009  0.009
   14  0.000  0.000  0.013  0.013
   15  0.000  0.000  0.016  0.016
   16  0.000  0.000  0.025  0.025
   17  0.000  0.000  0.000  0.000
   18  0.000  0.001  0.000  0.001
tot    0.000  0.002  0.933  0.935
 
band    36 # energy   -3.50668746 # occ.  2.00000000
 
ion      s      p      d    tot
    1  0.000  0.000  0.013  0.013
    2  0.000  0.000  0.014  0.014
    3  0.000  0.000  0.015  0.016
    4  0.000  0.000  0.012  0.012
    5  0.000  0.000  0.129  0.129
    6  0.000  0.000  0.121  0.121
    7  0.000  0.000  0.122  0.122
    8  0.000  0.000  0.123  0.123
    9  0.000  0.000  0.074  0.074
   10  0.000  0.000  0.085  0.085
   11  0.000  0.000  0.097  0.097
   12  0.000  0.000  0.066  0.066
   13  0.000  0.000  0.016  0.016
   14  0.000  0.000  0.012  0.012
   15  0.000  0.000  0.009  0.009
   16  0.000  0.000  0.025  0.026
   17  0.000  0.000  0.000  0.000
   18  0.000  0.001  0.000  0.001
tot    0.000  0.002  0.933  0.935
 
band    37 # energy   -3.40621699 # occ.  2.00000000
 
ion      s      p      d    tot
    1  0.000  0.000  0.026  0.027
    2  0.000  0.000  0.026  0.027
    3  0.000  0.000  0.026  0.027
    4  0.004  0.005  0.116  0.125
    5  0.000  0.003  0.003  0.006
    6  0.001  0.003  0.047  0.051
    7  0.001  0.003  0.047  0.051
    8  0.001  0.003  0.047  0.051
    9  0.001  0.001  0.034  0.035
   10  0.001  0.001  0.034  0.035
   11  0.019  0.010  0.062  0.091
   12  0.001  0.001  0.034  0.035
   13  0.000  0.026  0.047  0.073
   14  0.000  0.026  0.047  0.073
   15  0.000  0.026  0.047  0.073
   16  0.000  0.000  0.022  0.023
   17  0.011  0.024  0.001  0.035
   18  0.000  0.021  0.000  0.021
tot    0.040  0.152  0.665  0.857
 
band    38 # energy   -3.40063757 # occ.  2.00000000
 
ion      s      p      d    tot
    1  0.000  0.000  0.005  0.006
    2  0.000  0.000  0.011  0.012
    3  0.000  0.000  0.015  0.015
    4  0.000  0.000  0.004  0.004
    5  0.000  0.000  0.127  0.127
    6  0.000  0.000  0.071  0.071
    7  0.000  0.000  0.081  0.081
    8  0.000  0.000  0.097  0.098
    9  0.000  0.000  0.136  0.136
   10  0.000  0.000  0.113  0.113
   11  0.000  0.000  0.100  0.100
   12  0.000  0.000  0.152  0.152
   13  0.000  0.000  0.010  0.010
   14  0.000  0.000  0.005  0.005
   15  0.000  0.000  0.002  0.002
   16  0.000  0.000  0.012  0.012
   17  0.000  0.000  0.000  0.000
   18  0.000  0.000  0.000  0.000
tot    0.000  0.002  0.943  0.945
 
band    39 # energy   -3.40052489 # occ.  2.00000000
 
ion      s      p      d    tot
    1  0.000  0.000  0.016  0.016
    2  0.000  0.000  0.010  0.010
    3  0.000  0.000  0.006  0.006
    4  0.000  0.000  0.004  0.004
    5  0.000  0.000  0.126  0.127
    6  0.000  0.000  0.096  0.096
    7  0.000  0.000  0.085  0.085
    8  0.000  0.000  0.069  0.069
    9  0.000  0.000  0.131  0.131
   10  0.000  0.000  0.154  0.154
   11  0.000  0.000  0.101  0.101
   12  0.000  0.000  0.116  0.116
   13  0.000  0.000  0.001  0.001
   14  0.000  0.000  0.006  0.006
   15  0.000  0.000  0.009  0.010
   16  0.000  0.000  0.012  0.012
   17  0.000  0.000  0.000  0.000
   18  0.000  0.000  0.000  0.000
tot    0.000  0.002  0.943  0.945
 
band    40 # energy   -3.22508122 # occ.  2.00000000
 
ion      s      p      d    tot
    1  0.000  0.000  0.020  0.020
    2  0.000  0.000  0.018  0.018
    3  0.000  0.000  0.016  0.016
    4  0.000  0.000  0.018  0.018
    5  0.000  0.000  0.033  0.033
    6  0.000  0.000  0.013  0.013
    7  0.000  0.000  0.034  0.035
    8  0.000  0.000  0.074  0.074
    9  0.000  0.000  0.023  0.023
   10  0.000  0.000  0.026  0.026
   11  0.000  0.000  0.114  0.114
   12  0.000  0.001  0.021  0.022
   13  0.000  0.000  0.150  0.150
   14  0.000  0.000  0.107  0.107
   15  0.000  0.000  0.084  0.084
   16  0.000  0.000  0.125  0.125
   17  0.000  0.000  0.002  0.002
   18  0.000  0.041  0.000  0.041
tot    0.000  0.044  0.877  0.921
 
band    41 # energy   -3.22496209 # occ.  2.00000000
 
ion      s      p      d    tot
    1  0.000  0.000  0.016  0.016
    2  0.000  0.000  0.018  0.018
    3  0.000  0.000  0.020  0.020
    4  0.000  0.000  0.018  0.018
    5  0.000  0.000  0.033  0.033
    6  0.000  0.000  0.068  0.068
    7  0.000  0.000  0.046  0.046
    8  0.000  0.000  0.007  0.007
    9  0.000  0.000  0.024  0.024
   10  0.000  0.001  0.021  0.021