<?xml version="1.0" encoding="ISO-8859-1"?>
<modeling>
 <generator>
  <i name="program" type="string">vasp </i>
  <i name="version" type="string">5.4.4.18Apr17-6-g9f103f2a35  </i>
  <i name="subversion" type="string">(build Aug 07 2018 15:16:41) complex            parallel </i>
  <i name="platform" type="string">LinuxIFC </i>
  <i name="date" type="string">2019 10 18 </i>
  <i name="time" type="string">01:18:31 </i>
 </generator>
 <incar>
  <i type="string" name="PREC">normal</i>
  <i type="int" name="IBRION">     2</i>
  <i name="EDIFFG">     -0.03000000</i>
  <i type="int" name="NSW">     0</i>
  <i type="int" name="ISIF">     0</i>
  <i type="int" name="ISYM">     0</i>
  <i name="ENCUT">    350.00000000</i>
  <v name="RWIGS">      1.50000000      0.80000000      0.80000000</v>
  <i type="string" name="LREAL"> Auto</i>
  <i type="logical" name="LWAVE"> F  </i>
  <i type="logical" name="LCHARG"> F  </i>
  <i type="int" name="LORBIT">     0</i>
  <v type="int" name="KPOINT_BSE">    -1     0     0     0</v>
  <i type="string" name="GGA"> RP</i>
 </incar>
 <structure name="primitive_cell" >
  <crystal>
   <varray name="basis" >
    <v>       5.64384424       0.00000000       0.00000000 </v>
    <v>       2.82192212       4.88771248       0.00000000 </v>
    <v>       0.00000000       0.00000000      26.91226928 </v>
   </varray>
   <i name="volume">    742.38807929 </i>
   <varray name="rec_basis" >
    <v>       0.17718420      -0.10229734       0.00000000 </v>
    <v>       0.00000000       0.20459469       0.00000000 </v>
    <v>       0.00000000       0.00000000       0.03715777 </v>
   </varray>
  </crystal>
  <varray name="positions" >
   <v>       0.00000000       0.00000000       0.37157773 </v>
   <v>       0.16666667       0.16666667       0.45719258 </v>
   <v>       0.16666667      -0.33333333       0.45719258 </v>
   <v>      -0.33333333       0.16666667       0.45719258 </v>
   <v>       0.00000000      -0.50000000       0.37157773 </v>
   <v>      -0.50000000      -0.50000000       0.37157773 </v>
   <v>      -0.50000000       0.00000000       0.37157773 </v>
   <v>      -0.33333333      -0.33333333       0.45719258 </v>
   <v>      -0.16489320       0.33244268      -0.45760858 </v>
   <v>       0.33244169      -0.16489070      -0.45760784 </v>
   <v>      -0.16666726      -0.16666855      -0.45520015 </v>
   <v>       0.33244078       0.33244030      -0.45760950 </v>
   <v>      -0.00190895      -0.00192003      -0.36714691 </v>
   <v>      -0.49999972       0.49999648      -0.37352313 </v>
   <v>      -0.00191394      -0.49616272      -0.36715287 </v>
   <v>      -0.49615363      -0.00192401      -0.36715068 </v>
   <v>       0.16668159       0.16668135      -0.31749266 </v>
   <v>       0.16670316       0.16670136      -0.27290972 </v>
  </varray>
 </structure>
 <varray name="primitive_index" >
  <v type="int" >        1 </v>
  <v type="int" >        5 </v>
  <v type="int" >        7 </v>
  <v type="int" >        6 </v>
  <v type="int" >        3 </v>
  <v type="int" >        4 </v>
  <v type="int" >        2 </v>
  <v type="int" >        8 </v>
  <v type="int" >        9 </v>
  <v type="int" >       12 </v>
  <v type="int" >       11 </v>
  <v type="int" >       10 </v>
  <v type="int" >       13 </v>
  <v type="int" >       16 </v>
  <v type="int" >       15 </v>
  <v type="int" >       14 </v>
  <v type="int" >       17 </v>
  <v type="int" >       18 </v>
 </varray>
 <kpoints>
  <generation param="Monkhorst-Pack">
   <v type="int" name="divisions">       5        5        1 </v>
   <v name="usershift">      0.00000000       0.00000000       0.00000000 </v>
   <v name="genvec1">      0.20000000       0.00000000       0.00000000 </v>
   <v name="genvec2">      0.00000000       0.20000000       0.00000000 </v>
   <v name="genvec3">      0.00000000       0.00000000       1.00000000 </v>
   <v name="shift">      0.00000000       0.00000000       0.00000000 </v>
  </generation>
  <varray name="kpointlist" >
   <v>       0.00000000       0.00000000       0.00000000 </v>
   <v>       0.20000000       0.00000000       0.00000000 </v>
   <v>       0.40000000       0.00000000       0.00000000 </v>
   <v>       0.00000000       0.20000000       0.00000000 </v>
   <v>       0.20000000       0.20000000       0.00000000 </v>
   <v>       0.40000000       0.20000000       0.00000000 </v>
   <v>      -0.40000000       0.20000000       0.00000000 </v>
   <v>      -0.20000000       0.20000000       0.00000000 </v>
   <v>       0.00000000       0.40000000       0.00000000 </v>
   <v>       0.20000000       0.40000000       0.00000000 </v>
   <v>       0.40000000       0.40000000       0.00000000 </v>
   <v>      -0.40000000       0.40000000       0.00000000 </v>
   <v>      -0.20000000       0.40000000       0.00000000 </v>
  </varray>
  <varray name="weights" >
   <v>       0.04000000 </v>
   <v>       0.08000000 </v>
   <v>       0.08000000 </v>
   <v>       0.08000000 </v>
   <v>       0.08000000 </v>
   <v>       0.08000000 </v>
   <v>       0.08000000 </v>
   <v>       0.08000000 </v>
   <v>       0.08000000 </v>
   <v>       0.08000000 </v>
   <v>       0.08000000 </v>
   <v>       0.08000000 </v>
   <v>       0.08000000 </v>
  </varray>
 </kpoints>
 <parameters>
  <separator name="general" >
   <i type="string" name="SYSTEM">unknown system</i>
   <i type="logical" name="LCOMPAT"> F  </i>
  </separator>
  <separator name="electronic" >
   <i type="string" name="PREC">normal</i>
   <i name="ENMAX">    350.00000000</i>
   <i name="ENAUG">    644.87300000</i>
   <i name="EDIFF">      0.00010000</i>
   <i type="int" name="IALGO">    38</i>
   <i type="int" name="IWAVPR">    10</i>
   <i type="int" name="NBANDS">   104</i>
   <i name="NELECT">    170.00000000</i>
   <i type="int" name="TURBO">     0</i>
   <i type="int" name="IRESTART">     0</i>
   <i type="int" name="NREBOOT">     0</i>
   <i type="int" name="NMIN">     0</i>
   <i name="EREF">      0.00000000</i>
   <separator name="electronic smearing" >
    <i type="int" name="ISMEAR">     1</i>
    <i name="SIGMA">      0.20000000</i>
    <i name="KSPACING">      0.50000000</i>
    <i type="logical" name="KGAMMA"> T  </i>
   </separator>
   <separator name="electronic projectors" >
    <i type="logical" name="LREAL"> T  </i>
    <v name="ROPT">     -0.00050000     -0.00050000     -0.00050000</v>
    <i type="int" name="LMAXPAW">  -100</i>
    <i type="int" name="LMAXMIX">     2</i>
    <i type="logical" name="NLSPLINE"> F  </i>
   </separator>
   <separator name="electronic startup" >
    <i type="int" name="ISTART">     0</i>
    <i type="int" name="ICHARG">     2</i>
    <i type="int" name="INIWAV">     1</i>
   </separator>
   <separator name="electronic spin" >
    <i type="int" name="ISPIN">     1</i>
    <i type="logical" name="LNONCOLLINEAR"> F  </i>
    <v name="MAGMOM">      1.00000000      1.00000000      1.00000000      1.00000000      1.00000000      1.00000000      1.00000000      1.00000000      1.00000000      1.00000000      1.00000000      1.00000000      1.00000000      1.00000000      1.00000000      1.00000000      1.00000000      1.00000000</v>
    <i name="NUPDOWN">     -1.00000000</i>
    <i type="logical" name="LSORBIT"> F  </i>
    <v name="SAXIS">      0.00000000      0.00000000      1.00000000</v>
    <i type="logical" name="LSPIRAL"> F  </i>
    <v name="QSPIRAL">      0.00000000      0.00000000      0.00000000</v>
    <i type="logical" name="LZEROZ"> F  </i>
   </separator>
   <separator name="electronic exchange-correlation" >
    <i type="logical" name="LASPH"> F  </i>
    <i type="logical" name="LMETAGGA"> F  </i>
   </separator>
   <separator name="electronic convergence" >
    <i type="int" name="NELM">    60</i>
    <i type="int" name="NELMDL">    -5</i>
    <i type="int" name="NELMIN">     2</i>
    <i name="ENINI">    350.00000000</i>
    <separator name="electronic convergence detail" >
     <i type="logical" name="LDIAG"> T  </i>
     <i type="logical" name="LSUBROT"> F  </i>
     <i name="WEIMIN">      0.00000000</i>
     <i name="EBREAK">      0.00000024</i>
     <i name="DEPER">      0.30000000</i>
     <i type="int" name="NRMM">     4</i>
     <i name="TIME">      0.40000000</i>
    </separator>
   </separator>
   <separator name="electronic mixer" >
    <i name="AMIX">      0.40000000</i>
    <i name="BMIX">      1.00000000</i>
    <i name="AMIN">      0.10000000</i>
    <i name="AMIX_MAG">      1.60000000</i>
    <i name="BMIX_MAG">      1.00000000</i>
    <separator name="electronic mixer details" >
     <i type="int" name="IMIX">     4</i>
     <i type="logical" name="MIXFIRST"> F  </i>
     <i type="int" name="MAXMIX">   -45</i>
     <i name="WC">    100.00000000</i>
     <i type="int" name="INIMIX">     1</i>
     <i type="int" name="MIXPRE">     1</i>
     <i type="int" name="MREMOVE">     5</i>
    </separator>
   </separator>
   <separator name="electronic dipolcorrection" >
    <i type="logical" name="LDIPOL"> F  </i>
    <i type="logical" name="LMONO"> F  </i>
    <i type="int" name="IDIPOL">     0</i>
    <i name="EPSILON">      1.00000000</i>
    <v name="DIPOL">   -100.00000000   -100.00000000   -100.00000000</v>
    <i name="EFIELD">      0.00000000</i>
   </separator>
  </separator>
  <separator name="grids" >
   <i type="int" name="NGX">    28</i>
   <i type="int" name="NGY">    28</i>
   <i type="int" name="NGZ">   126</i>
   <i type="int" name="NGXF">    56</i>
   <i type="int" name="NGYF">    56</i>
   <i type="int" name="NGZF">   252</i>
   <i type="logical" name="ADDGRID"> F  </i>
  </separator>
  <separator name="ionic" >
   <i type="int" name="NSW">     0</i>
   <i type="int" name="IBRION">    -1</i>
   <i type="int" name="MDALGO">     0</i>
   <i type="int" name="ISIF">     0</i>
   <i name="PSTRESS">      0.00000000</i>
   <i name="EDIFFG">     -0.03000000</i>
   <i type="int" name="NFREE">     1</i>
   <i name="POTIM">      0.50000000</i>
   <i name="SMASS">     -3.00000000</i>
   <i name="SCALEE">      1.00000000</i>
  </separator>
  <separator name="ionic md" >
   <i name="TEBEG">      0.00010000</i>
   <i name="TEEND">      0.00010000</i>
   <i type="int" name="NBLOCK">     1</i>
   <i type="int" name="KBLOCK">     1</i>
   <i type="int" name="NPACO">   256</i>
   <i name="APACO">     16.00000000</i>
  </separator>
  <separator name="symmetry" >
   <i type="int" name="ISYM">     0</i>
   <i name="SYMPREC">      0.00001000</i>
  </separator>
  <separator name="dos" >
   <i type="int" name="LORBIT">     0</i>
   <v name="RWIGS">      1.50000000      0.80000000      0.80000000</v>
   <i type="int" name="NEDOS">   301</i>
   <i name="EMIN">     10.00000000</i>
   <i name="EMAX">    -10.00000000</i>
   <i name="EFERMI">      0.00000000</i>
  </separator>
  <separator name="writing" >
   <i type="int" name="NWRITE">     2</i>
   <i type="logical" name="LWAVE"> F  </i>
   <i type="logical" name="LDOWNSAMPLE"> F  </i>
   <i type="logical" name="LCHARG"> F  </i>
   <i type="logical" name="LPARD"> F  </i>
   <i type="logical" name="LVTOT"> F  </i>
   <i type="logical" name="LVHAR"> F  </i>
   <i type="logical" name="LELF"> F  </i>
   <i type="logical" name="LOPTICS"> F  </i>
   <v name="STM">      0.00000000      0.00000000      0.00000000      0.00000000      0.00000000      0.00000000      0.00000000</v>
  </separator>
  <separator name="performance" >
   <i type="int" name="NPAR">     4</i>
   <i type="int" name="NSIM">     4</i>
   <i type="int" name="NBLK">    -1</i>
   <i type="logical" name="LPLANE"> T  </i>
   <i type="logical" name="LSCALAPACK"> T  </i>
   <i type="logical" name="LSCAAWARE"> F  </i>
   <i type="logical" name="LSCALU"> F  </i>
   <i type="logical" name="LASYNC"> F  </i>
   <i type="logical" name="LORBITALREAL"> F  </i>
  </separator>
  <separator name="miscellaneous" >
   <i type="int" name="IDIOT">     3</i>
   <i type="int" name="ISPECIAL">     0</i>
   <i type="logical" name="LMUSIC"> F  </i>
   <v name="POMASS">    195.08000000     12.01100000     16.00000000</v>
   <v name="DARWINR">      0.00000000      0.00000000      0.00000000</v>
   <v name="DARWINV">      1.00000000      1.00000000      1.00000000</v>
   <i type="logical" name="LCORR"> T  </i>
  </separator>
  <i type="logical" name="GGA_COMPAT"> T  </i>
  <i type="logical" name="LBERRY"> F  </i>
  <i type="int" name="ICORELEVEL">     0</i>
  <i type="logical" name="LDAU"> F  </i>
  <i type="int" name="I_CONSTRAINED_M">     0</i>
  <separator name="electronic exchange-correlation" >
   <i type="string" name="GGA">RP</i>
   <i type="int" name="VOSKOWN">     0</i>
   <i type="logical" name="LHFCALC"> F  </i>
   <i type="string" name="PRECFOCK"></i>
   <i type="logical" name="LSYMGRAD"> F  </i>
   <i type="logical" name="LHFONE"> F  </i>
   <i type="logical" name="LRHFCALC"> F  </i>
   <i type="logical" name="LTHOMAS"> F  </i>
   <i type="logical" name="LMODELHF"> F  </i>
   <i name="ENCUT4O">     -1.00000000</i>
   <i type="int" name="EXXOEP">     0</i>
   <i type="int" name="FOURORBIT">     0</i>
   <i name="AEXX">      0.00000000</i>
   <i name="HFALPHA">      0.00000000</i>
   <i name="MCALPHA">      0.00000000</i>
   <i name="ALDAX">      1.00000000</i>
   <i name="AGGAX">      1.00000000</i>
   <i name="ALDAC">      1.00000000</i>
   <i name="AGGAC">      1.00000000</i>
   <i type="int" name="NKREDX">     1</i>
   <i type="int" name="NKREDY">     1</i>
   <i type="int" name="NKREDZ">     1</i>
   <i type="logical" name="SHIFTRED"> F  </i>
   <i type="logical" name="ODDONLY"> F  </i>
   <i type="logical" name="EVENONLY"> F  </i>
   <i type="int" name="LMAXFOCK">     0</i>
   <i type="int" name="NMAXFOCKAE">     0</i>
   <i type="logical" name="LFOCKAEDFT"> F  </i>
   <i name="HFSCREEN">      0.00000000</i>
   <i name="HFSCREENC">      0.00000000</i>
   <i type="int" name="NBANDSGWLOW">     0</i>
  </separator>
  <separator name="vdW DFT" >
   <i type="logical" name="LUSE_VDW"> F  </i>
   <i name="Zab_VDW">     -0.84910000</i>
   <i name="PARAM1">      0.12340000</i>
   <i name="PARAM2">      1.00000000</i>
   <i name="PARAM3">      0.00000000</i>
  </separator>
  <separator name="model GW" >
   <i type="int" name="MODEL_GW">     0</i>
   <i name="MODEL_EPS0">     24.74626931</i>
   <i name="MODEL_ALPHA">      1.00000000</i>
  </separator>
  <separator name="linear response parameters" >
   <i type="logical" name="LEPSILON"> F  </i>
   <i type="logical" name="LRPA"> F  </i>
   <i type="logical" name="LNABLA"> F  </i>
   <i type="logical" name="LVEL"> F  </i>
   <i type="int" name="KINTER">     0</i>
   <i name="CSHIFT">      0.10000000</i>
   <i name="OMEGAMAX">     -1.00000000</i>
   <i name="DEG_THRESHOLD">      0.00200000</i>
   <i name="RTIME">     -0.10000000</i>
   <i name="WPLASMAI">      0.00000000</i>
   <v name="DFIELD">      0.00000000      0.00000000      0.00000000</v>
   <v name="WPLASMA">      0.00000000      0.00000000      0.00000000      0.00000000      0.00000000      0.00000000      0.00000000      0.00000000      0.00000000</v>
  </separator>
  <separator name="orbital magnetization" >
   <i type="logical" name="NUCIND"> F  </i>
   <v name="MAGPOS">      0.00000000      0.00000000      0.00000000</v>
   <i type="logical" name="LNICSALL"> T  </i>
   <i type="logical" name="ORBITALMAG"> F  </i>
   <i type="logical" name="LMAGBLOCH"> F  </i>
   <i type="logical" name="LCHIMAG"> F  </i>
   <i type="logical" name="LGAUGE"> T  </i>
   <i type="int" name="MAGATOM">     0</i>
   <v name="MAGDIPOL">      0.00000000      0.00000000      0.00000000</v>
   <v name="AVECCONST">      0.00000000      0.00000000      0.00000000</v>
  </separator>
  <separator name="response functions" >
   <i type="logical" name="LADDER"> F  </i>
   <i type="logical" name="LRPAFORCE"> F  </i>
   <i type="logical" name="LFXC"> F  </i>
   <i type="logical" name="LHARTREE"> T  </i>
   <i type="int" name="IBSE">     0</i>
   <v type="int" name="KPOINT">    -1     0     0     0</v>
   <i type="logical" name="LTCTE"> F  </i>
   <i type="logical" name="LTETE"> F  </i>
   <i type="logical" name="LTRIPLET"> F  </i>
   <i type="logical" name="LFXCEPS"> F  </i>
   <i type="logical" name="LFXHEG"> F  </i>
   <i type="int" name="NATURALO">     2</i>
   <i type="logical" name="L2ORDER"> F  </i>
   <i type="logical" name="LMP2LT"> F  </i>
   <i type="logical" name="LUSEW"> F  </i>
   <i name="ENCUTGW">     -2.00000000</i>
   <i name="ENCUTGWSOFT">     -2.00000000</i>
   <i name="ENCUTLF">     -1.00000000</i>
   <i type="int" name="LMAXMP2">    -1</i>
   <i name="SCISSOR">      0.00000000</i>
   <i type="int" name="NOMEGA">     0</i>
   <i type="int" name="NOMEGAR">     0</i>
   <i type="int" name="NBANDSGW">    -1</i>
   <i type="int" name="NBANDSO">    -1</i>
   <i type="int" name="NBANDSV">    -1</i>
   <i type="int" name="NELM">     1</i>
   <i type="int" name="NELMHF">     1</i>
   <i type="int" name="DIM">     3</i>
   <i type="int" name="ANTIRES">     0</i>
   <i name="OMEGAMAX">    -30.00000000</i>
   <i name="OMEGAMIN">    -30.00000000</i>
   <i name="OMEGATL">   -200.00000000</i>
   <i type="int" name="OMEGAGRID">   140</i>
   <i name="CSHIFT">     -0.10000000</i>
   <i type="logical" name="SELFENERGY"> F  </i>
   <i type="logical" name="LSPECTRAL"> F  </i>
   <i type="logical" name="LSPECTRALGW"> F  </i>
   <i type="logical" name="LSINGLES"> F  </i>
   <i type="logical" name="LFERMIGW"> F  </i>
   <i type="logical" name="ODDONLYGW"> F  </i>
   <i type="logical" name="EVENONLYGW"> F  </i>
   <i type="int" name="NKREDLFX">     1</i>
   <i type="int" name="NKREDLFY">     1</i>
   <i type="int" name="NKREDLFZ">     1</i>
   <i type="int" name="MAXMEM">  2800</i>
   <i type="int" name="TELESCOPE">     0</i>
   <i type="int" name="TAUPAR">     1</i>
   <i type="int" name="OMEGAPAR">    -1</i>
   <i name="LAMBDA">      1.00000000</i>
  </separator>
  <separator name="External order field" >
   <i name="OFIELD_KAPPA">      0.00000000</i>
   <v name="OFIELD_K">      0.00000000      0.00000000      0.00000000</v>
   <i name="OFIELD_Q6_NEAR">      0.00000000</i>
   <i name="OFIELD_Q6_FAR">      0.00000000</i>
   <i name="OFIELD_A">      0.00000000</i>
  </separator>
 </parameters>
 <atominfo>
  <atoms>      18 </atoms>
  <types>       3 </types>
  <array name="atoms" >
   <dimension dim="1">ion</dimension>
   <field type="string">element</field>
   <field type="int">atomtype</field>
   <set>
    <rc><c>Pt</c><c>   1</c></rc>
    <rc><c>Pt</c><c>   1</c></rc>
    <rc><c>Pt</c><c>   1</c></rc>
    <rc><c>Pt</c><c>   1</c></rc>
    <rc><c>Pt</c><c>   1</c></rc>
    <rc><c>Pt</c><c>   1</c></rc>
    <rc><c>Pt</c><c>   1</c></rc>
    <rc><c>Pt</c><c>   1</c></rc>
    <rc><c>Pt</c><c>   1</c></rc>
    <rc><c>Pt</c><c>   1</c></rc>
    <rc><c>Pt</c><c>   1</c></rc>
    <rc><c>Pt</c><c>   1</c></rc>
    <rc><c>Pt</c><c>   1</c></rc>
    <rc><c>Pt</c><c>   1</c></rc>
    <rc><c>Pt</c><c>   1</c></rc>
    <rc><c>Pt</c><c>   1</c></rc>
    <rc><c>C </c><c>   2</c></rc>
    <rc><c>O </c><c>   3</c></rc>
   </set>
  </array>
  <array name="atomtypes" >
   <dimension dim="1">type</dimension>
   <field type="int">atomspertype</field>
   <field type="string">element</field>
   <field>mass</field>
   <field>valence</field>
   <field type="string">pseudopotential</field>
   <set>
    <rc><c>  16</c><c>Pt</c><c>    195.08000000</c><c>     10.00000000</c><c>  PAW_PBE Pt 04Feb2005                  </c></rc>
    <rc><c>   1</c><c>C </c><c>     12.01100000</c><c>      4.00000000</c><c>  PAW_PBE C 08Apr2002                   </c></rc>
    <rc><c>   1</c><c>O </c><c>     16.00000000</c><c>      6.00000000</c><c>  PAW_PBE O 08Apr2002                   </c></rc>
   </set>
  </array>
 </atominfo>
 <structure name="initialpos" >
  <crystal>
   <varray name="basis" >
    <v>       5.64384424       0.00000000       0.00000000 </v>
    <v>       2.82192212       4.88771248       0.00000000 </v>
    <v>       0.00000000       0.00000000      26.91226928 </v>
   </varray>
   <i name="volume">    742.38807929 </i>
   <varray name="rec_basis" >
    <v>       0.17718420      -0.10229734       0.00000000 </v>
    <v>       0.00000000       0.20459469       0.00000000 </v>
    <v>       0.00000000       0.00000000       0.03715777 </v>
   </varray>
  </crystal>
  <varray name="positions" >
   <v>       0.00000000       0.00000000       0.37157773 </v>
   <v>       0.50000000       0.00000000       0.37157773 </v>
   <v>       0.00000000       0.50000000       0.37157773 </v>
   <v>       0.50000000       0.50000000       0.37157773 </v>
   <v>       0.16666667       0.16666667       0.45719258 </v>
   <v>       0.66666667       0.16666667       0.45719258 </v>
   <v>       0.16666667       0.66666667       0.45719258 </v>
   <v>       0.66666667       0.66666667       0.45719258 </v>
   <v>       0.83510680       0.33244268       0.54239142 </v>
   <v>       0.33244078       0.33244030       0.54239050 </v>
   <v>       0.83333274       0.83333145       0.54479985 </v>
   <v>       0.33244169       0.83510930       0.54239216 </v>
   <v>       0.99809105       0.99807997       0.63285309 </v>
   <v>       0.50384637       0.99807599       0.63284932 </v>
   <v>       0.99808606       0.50383728       0.63284713 </v>
   <v>       0.50000028       0.49999648       0.62647687 </v>
   <v>       0.16668159       0.16668135       0.68250734 </v>
   <v>       0.16670316       0.16670136       0.72709028 </v>
  </varray>
  <varray name="selective"  type="logical" >
   <v type="logical" >  F  F  F </v>
   <v type="logical" >  F  F  F </v>
   <v type="logical" >  F  F  F </v>
   <v type="logical" >  F  F  F </v>
   <v type="logical" >  F  F  F </v>
   <v type="logical" >  F  F  F </v>
   <v type="logical" >  F  F  F </v>
   <v type="logical" >  F  F  F </v>
   <v type="logical" >  T  T  T </v>
   <v type="logical" >  T  T  T </v>
   <v type="logical" >  T  T  T </v>
   <v type="logical" >  T  T  T </v>
   <v type="logical" >  T  T  T </v>
   <v type="logical" >  T  T  T </v>
   <v type="logical" >  T  T  T </v>
   <v type="logical" >  T  T  T </v>
   <v type="logical" >  T  T  T </v>
   <v type="logical" >  T  T  T </v>
  </varray>
  <nose>
   <v>      -3.00000000       0.00000000       0.00010000       0.00010000 </v>
  </nose>
 </structure>
 <calculation>
  <scstep>
   <time name="dav">    3.16    3.18</time>
   <time name="total">    3.21    3.24</time>
   <energy>
    <i name="alphaZ">    358.28533891 </i>
    <i name="ewald">  72120.92943230 </i>
    <i name="hartreedc"> -84879.10688227 </i>
    <i name="XCdc">     88.27677331 </i>
    <i name="pawpsdc">  11602.90403888 </i>
    <i name="pawaedc"> -11137.02028253 </i>
    <i name="eentropy">     -0.00354139 </i>
    <i name="bandstr">    627.22655473 </i>
    <i name="atom">  12232.07567246 </i>
    <i name="e_fr_energy">   1013.56710439 </i>
    <i name="e_wo_entrp">   1013.57064578 </i>
    <i name="e_0_energy">   1013.56828485 </i>
   </energy>
  </scstep>
  <scstep>
   <time name="dav">    3.71    3.72</time>
   <time name="total">    3.71    3.72</time>
   <energy>
    <i name="e_fr_energy">    -23.69948183 </i>
    <i name="e_wo_entrp">    -23.70451315 </i>
    <i name="e_0_energy">    -23.70115894 </i>
   </energy>
  </scstep>
  <scstep>
   <time name="dav">    3.53    3.53</time>
   <time name="total">    3.54    3.54</time>
   <energy>
    <i name="e_fr_energy">   -103.42075342 </i>
    <i name="e_wo_entrp">   -103.39135065 </i>
    <i name="e_0_energy">   -103.41095250 </i>
   </energy>
  </scstep>
  <scstep>
   <time name="dav">    3.90    3.90</time>
   <time name="total">    3.91    3.91</time>
   <energy>
    <i name="e_fr_energy">   -106.32681602 </i>
    <i name="e_wo_entrp">   -106.29261275 </i>
    <i name="e_0_energy">   -106.31541493 </i>
   </energy>
  </scstep>
  <scstep>
   <time name="dav">    3.92    3.92</time>
   <time name="total">    4.17    4.17</time>
   <energy>
    <i name="e_fr_energy">   -106.39478377 </i>
    <i name="e_wo_entrp">   -106.36057196 </i>
    <i name="e_0_energy">   -106.38337984 </i>
   </energy>
  </scstep>
  <scstep>
   <time name="dav">    4.01    4.01</time>
   <time name="total">    4.27    4.27</time>
   <energy>
    <i name="e_fr_energy">   -102.59416357 </i>
    <i name="e_wo_entrp">   -102.56060725 </i>
    <i name="e_0_energy">   -102.58297813 </i>
   </energy>
  </scstep>
  <scstep>
   <time name="dav">    4.02    4.02</time>
   <time name="total">    4.32    4.32</time>
   <energy>
    <i name="e_fr_energy">   -120.19462445 </i>
    <i name="e_wo_entrp">   -120.13284443 </i>
    <i name="e_0_energy">   -120.17403111 </i>
   </energy>
  </scstep>
  <scstep>
   <time name="dav">    4.00    4.00</time>
   <time name="total">    4.25    4.26</time>
   <energy>
    <i name="e_fr_energy">   -116.01682822 </i>
    <i name="e_wo_entrp">   -115.99220398 </i>
    <i name="e_0_energy">   -116.00862014 </i>
   </energy>
  </scstep>
  <scstep>
   <time name="dav">    3.80    3.80</time>
   <time name="total">    4.08    4.08</time>
   <energy>
    <i name="e_fr_energy">   -103.92195855 </i>
    <i name="e_wo_entrp">   -103.95224834 </i>
    <i name="e_0_energy">   -103.93205515 </i>
   </energy>
  </scstep>
  <scstep>
   <time name="dav">    3.57    3.58</time>
   <time name="total">    3.83    3.83</time>
   <energy>
    <i name="e_fr_energy">   -105.76903003 </i>
    <i name="e_wo_entrp">   -105.76349038 </i>
    <i name="e_0_energy">   -105.76718348 </i>
   </energy>
  </scstep>
  <scstep>
   <time name="dav">    3.69    3.70</time>
   <time name="total">    3.97    3.97</time>
   <energy>
    <i name="e_fr_energy">    -99.17408158 </i>
    <i name="e_wo_entrp">    -99.16474707 </i>
    <i name="e_0_energy">    -99.17097008 </i>
   </energy>
  </scstep>
  <scstep>
   <time name="dav">    3.43    3.43</time>
   <time name="total">    3.67    3.67</time>
   <energy>
    <i name="e_fr_energy">    -99.22470509 </i>
    <i name="e_wo_entrp">    -99.22988920 </i>
    <i name="e_0_energy">    -99.22643313 </i>
   </energy>
  </scstep>
  <scstep>
   <time name="dav">    3.21    3.21</time>
   <time name="total">    3.47    3.47</time>
   <energy>
    <i name="e_fr_energy">    -98.84650604 </i>
    <i name="e_wo_entrp">    -98.83302526 </i>
    <i name="e_0_energy">    -98.84201245 </i>
   </energy>
  </scstep>
  <scstep>
   <time name="dav">    3.67    3.67</time>
   <time name="total">    3.93    3.93</time>
   <energy>
    <i name="e_fr_energy">    -98.82748090 </i>
    <i name="e_wo_entrp">    -98.81316992 </i>
    <i name="e_0_energy">    -98.82271057 </i>
   </energy>
  </scstep>
  <scstep>
   <time name="dav">    3.23    3.23</time>
   <time name="total">    3.47    3.47</time>
   <energy>
    <i name="e_fr_energy">    -98.79367934 </i>
    <i name="e_wo_entrp">    -98.77465112 </i>
    <i name="e_0_energy">    -98.78733660 </i>
   </energy>
  </scstep>
  <scstep>
   <time name="dav">    3.54    3.54</time>
   <time name="total">    3.79    3.80</time>
   <energy>
    <i name="e_fr_energy">    -98.79237676 </i>
    <i name="e_wo_entrp">    -98.77457447 </i>
    <i name="e_0_energy">    -98.78644266 </i>
   </energy>
  </scstep>
  <scstep>
   <time name="dav">    3.30    3.30</time>
   <time name="total">    3.55    3.55</time>
   <energy>
    <i name="e_fr_energy">    -98.79128341 </i>
    <i name="e_wo_entrp">    -98.77150201 </i>
    <i name="e_0_energy">    -98.78468961 </i>
   </energy>
  </scstep>
  <scstep>
   <time name="dav">    3.65    3.65</time>
   <time name="total">    3.95    3.95</time>
   <energy>
    <i name="e_fr_energy">    -98.78779201 </i>
    <i name="e_wo_entrp">    -98.76801555 </i>
    <i name="e_0_energy">    -98.78119985 </i>
   </energy>
  </scstep>
  <scstep>
   <time name="dav">    3.39    3.39</time>
   <time name="total">    3.63    3.63</time>
   <energy>
    <i name="e_fr_energy">    -98.78707151 </i>
    <i name="e_wo_entrp">    -98.76780925 </i>
    <i name="e_0_energy">    -98.78065075 </i>
   </energy>
  </scstep>
  <scstep>
   <time name="dav">    2.94    2.94</time>
   <time name="total">    3.18    3.18</time>
   <energy>
    <i name="e_fr_energy">    -98.78720886 </i>
    <i name="e_wo_entrp">    -98.76751094 </i>
    <i name="e_0_energy">    -98.78064289 </i>
   </energy>
  </scstep>
  <scstep>
   <time name="dav">    2.33    2.33</time>
   <time name="total">    2.37    2.37</time>
   <energy>
    <i name="alphaZ">    358.28533891 </i>
    <i name="ewald">  72120.92943230 </i>
    <i name="hartreedc"> -84707.75380787 </i>
    <i name="XCdc">     84.51342238 </i>
    <i name="pawpsdc">  14950.23470364 </i>
    <i name="pawaedc"> -14524.88422546 </i>
    <i name="eentropy">     -0.01963012 </i>
    <i name="bandstr">   -612.16803103 </i>
    <i name="atom">  12232.07567246 </i>
    <i name="e_fr_energy">    -98.78712480 </i>
    <i name="e_wo_entrp">    -98.76749468 </i>
    <i name="e_0_energy">    -98.78058143 </i>
   </energy>
  </scstep>
  <structure>
   <crystal>
    <varray name="basis" >
     <v>       5.64384424       0.00000000       0.00000000 </v>
     <v>       2.82192212       4.88771248       0.00000000 </v>
     <v>       0.00000000       0.00000000      26.91226928 </v>
    </varray>
    <i name="volume">    742.38807929 </i>
    <varray name="rec_basis" >
     <v>       0.17718420      -0.10229734       0.00000000 </v>
     <v>       0.00000000       0.20459469       0.00000000 </v>
     <v>       0.00000000       0.00000000       0.03715777 </v>
    </varray>
   </crystal>
   <varray name="positions" >
    <v>       0.00000000       0.00000000       0.37157773 </v>
    <v>       0.50000000       0.00000000       0.37157773 </v>
    <v>       0.00000000       0.50000000       0.37157773 </v>
    <v>       0.50000000       0.50000000       0.37157773 </v>
    <v>       0.16666667       0.16666667       0.45719258 </v>
    <v>       0.66666667       0.16666667       0.45719258 </v>
    <v>       0.16666667       0.66666667       0.45719258 </v>
    <v>       0.66666667       0.66666667       0.45719258 </v>
    <v>       0.83510680       0.33244268       0.54239142 </v>
    <v>       0.33244078       0.33244030       0.54239050 </v>
    <v>       0.83333274       0.83333145       0.54479985 </v>
    <v>       0.33244169       0.83510930       0.54239216 </v>
    <v>       0.99809105       0.99807997       0.63285309 </v>
    <v>       0.50384637       0.99807599       0.63284932 </v>
    <v>       0.99808606       0.50383728       0.63284713 </v>
    <v>       0.50000028       0.49999648       0.62647687 </v>
    <v>       0.16668159       0.16668135       0.68250734 </v>
    <v>       0.16670316       0.16670136       0.72709028 </v>
   </varray>
  </structure>
  <varray name="forces" >
   <v>       0.03468005       0.02008938      -0.10562995 </v>
   <v>      -0.03471065       0.02016593      -0.10697197 </v>
   <v>       0.00004779      -0.04019116      -0.10812186 </v>
   <v>      -0.00005255      -0.00003697      -0.21440202 </v>
   <v>      -0.00005973      -0.00000051       0.21724765 </v>
   <v>      -0.00004755      -0.05653555       0.12487581 </v>
   <v>      -0.04898997       0.02827870       0.12499502 </v>
   <v>       0.04894026       0.02830468       0.12512585 </v>
   <v>       0.00841687      -0.00528728       0.00217084 </v>
   <v>      -0.00828899      -0.00499352       0.00149886 </v>
   <v>       0.00013548       0.00022043      -0.00437404 </v>
   <v>      -0.00019277       0.00996136       0.00263988 </v>
   <v>      -0.01647201      -0.00930622      -0.02838262 </v>
   <v>       0.01642142      -0.00927891      -0.02905983 </v>
   <v>      -0.00000268       0.01872254      -0.02918377 </v>
   <v>       0.00005136      -0.00021592       0.01188736 </v>
   <v>       0.00004673      -0.00001703       0.03471976 </v>
   <v>       0.00007692       0.00012006      -0.01903497 </v>
  </varray>
  <energy>
   <i name="e_fr_energy">    -98.78712480 </i>
   <i name="e_wo_entrp">    -98.78058143 </i>
   <i name="e_0_energy">     -0.01963012 </i>
  </energy>
  <time name="totalsc">   79.56   79.65</time>
  <eigenvalues>
   <array>
    <dimension dim="1">band</dimension>
    <dimension dim="2">kpoint</dimension>
    <dimension dim="3">spin</dimension>
    <field>eigene</field>
    <field>occ</field>
    <set>
     <set comment="spin 1">
      <set comment="kpoint 1">
       <r>  -22.3880    1.0000 </r>
       <r>  -10.8309    1.0000 </r>
       <r>   -9.1025    1.0000 </r>
       <r>   -7.7922    1.0000 </r>
       <r>   -6.9891    1.0000 </r>
       <r>   -6.7881    1.0000 </r>
       <r>   -6.6710    1.0000 </r>
       <r>   -6.6708    1.0000 </r>
       <r>   -6.5144    1.0000 </r>
       <r>   -6.4104    1.0000 </r>
       <r>   -6.4103    1.0000 </r>
       <r>   -6.3173    1.0000 </r>
       <r>   -6.2578    1.0000 </r>
       <r>   -6.2372    1.0000 </r>
       <r>   -6.2372    1.0000 </r>
       <r>   -5.8420    1.0000 </r>
       <r>   -5.8087    1.0000 </r>
       <r>   -5.8087    1.0000 </r>
       <r>   -5.6724    1.0000 </r>
       <r>   -5.6573    1.0000 </r>
       <r>   -5.6571    1.0000 </r>
       <r>   -5.4214    1.0000 </r>
       <r>   -5.4214    1.0000 </r>
       <r>   -5.0522    1.0000 </r>
       <r>   -4.7064    1.0000 </r>
       <r>   -4.7063    1.0000 </r>
       <r>   -4.2809    1.0000 </r>
       <r>   -3.8778    1.0000 </r>
       <r>   -3.8777    1.0000 </r>
       <r>   -3.8097    1.0000 </r>
       <r>   -3.7560    1.0000 </r>
       <r>   -3.7560    1.0000 </r>
       <r>   -3.7299    1.0000 </r>
       <r>   -3.5848    1.0000 </r>
       <r>   -3.5067    1.0000 </r>
       <r>   -3.5067    1.0000 </r>
       <r>   -3.4062    1.0000 </r>
       <r>   -3.4006    1.0000 </r>
       <r>   -3.4005    1.0000 </r>
       <r>   -3.2251    1.0000 </r>
       <r>   -3.2250    1.0000 </r>
       <r>   -3.1909    1.0000 </r>
       <r>   -3.1855    1.0000 </r>
       <r>   -3.1854    1.0000 </r>
       <r>   -3.0456    1.0000 </r>
       <r>   -3.0456    1.0000 </r>
       <r>   -2.7451    1.0000 </r>
       <r>   -2.6453    1.0000 </r>
       <r>   -2.6452    1.0000 </r>
       <r>   -2.5537    1.0000 </r>
       <r>   -2.3281    1.0000 </r>
       <r>   -2.3281    1.0000 </r>
       <r>   -2.1682    1.0000 </r>
       <r>   -2.1283    1.0000 </r>
       <r>   -2.1282    1.0000 </r>
       <r>   -1.7649    1.0000 </r>
       <r>   -1.6167    1.0000 </r>
       <r>   -1.6167    1.0000 </r>
       <r>   -1.4682    1.0000 </r>
       <r>   -1.4680    1.0000 </r>
       <r>   -1.2512    1.0000 </r>
       <r>   -1.2511    1.0000 </r>
       <r>   -1.2135    1.0000 </r>
       <r>   -0.9700    1.0000 </r>
       <r>   -0.9699    1.0000 </r>
       <r>   -0.8314    1.0000 </r>
       <r>   -0.8313    1.0000 </r>
       <r>   -0.8266    1.0000 </r>
       <r>   -0.5002    1.0226 </r>
       <r>   -0.4217    1.0354 </r>
       <r>   -0.4216    1.0354 </r>
       <r>   -0.3672    1.0183 </r>
       <r>   -0.3639    1.0159 </r>
       <r>   -0.3636    1.0157 </r>
       <r>   -0.2608    0.8179 </r>
       <r>   -0.2605    0.8170 </r>
       <r>   -0.0711    0.1106 </r>
       <r>   -0.0639    0.0927 </r>
       <r>   -0.0638    0.0924 </r>
       <r>    0.0230   -0.0258 </r>
       <r>    0.0587   -0.0352 </r>
       <r>    0.0588   -0.0352 </r>
       <r>    0.1313   -0.0255 </r>
       <r>    0.1408   -0.0233 </r>
       <r>    0.1409   -0.0232 </r>
       <r>    0.1562   -0.0198 </r>
       <r>    0.2844   -0.0026 </r>
       <r>    0.2877   -0.0024 </r>
       <r>    0.2879   -0.0024 </r>
       <r>    0.6557   -0.0000 </r>
       <r>    0.6557   -0.0000 </r>
       <r>    0.7596   -0.0000 </r>
       <r>    1.3884   -0.0000 </r>
       <r>    2.0262   -0.0000 </r>
       <r>    2.0263   -0.0000 </r>
       <r>    2.4594   -0.0000 </r>
       <r>    2.4800   -0.0000 </r>
       <r>    2.4801   -0.0000 </r>
       <r>    2.6787   -0.0000 </r>
       <r>    2.7335   -0.0000 </r>
       <r>    2.7337   -0.0000 </r>
       <r>    3.2786   -0.0000 </r>
       <r>    3.2786   -0.0000 </r>
       <r>    4.7898   -0.0000 </r>
      </set>
      <set comment="kpoint 2">
       <r>  -22.3877    1.0000 </r>
       <r>  -10.7290    1.0000 </r>
       <r>   -8.7892    1.0000 </r>
       <r>   -7.5184    1.0000 </r>
       <r>   -6.8723    1.0000 </r>
       <r>   -6.6469    1.0000 </r>
       <r>   -6.5435    1.0000 </r>
       <r>   -6.4784    1.0000 </r>
       <r>   -6.4468    1.0000 </r>
       <r>   -6.2654    1.0000 </r>
       <r>   -6.1944    1.0000 </r>
       <r>   -6.1668    1.0000 </r>
       <r>   -6.0838    1.0000 </r>
       <r>   -6.0153    1.0000 </r>
       <r>   -6.0078    1.0000 </r>
       <r>   -5.6957    1.0000 </r>
       <r>   -5.6661    1.0000 </r>
       <r>   -5.6546    1.0000 </r>
       <r>   -5.5494    1.0000 </r>
       <r>   -5.4045    1.0000 </r>
       <r>   -5.4000    1.0000 </r>
       <r>   -5.3041    1.0000 </r>
       <r>   -5.2158    1.0000 </r>
       <r>   -4.9519    1.0000 </r>
       <r>   -4.6558    1.0000 </r>
       <r>   -4.6381    1.0000 </r>
       <r>   -4.3188    1.0000 </r>
       <r>   -3.9993    1.0000 </r>
       <r>   -3.9867    1.0000 </r>
       <r>   -3.9049    1.0000 </r>
       <r>   -3.8435    1.0000 </r>
       <r>   -3.7191    1.0000 </r>
       <r>   -3.7013    1.0000 </r>
       <r>   -3.6373    1.0000 </r>
       <r>   -3.6302    1.0000 </r>
       <r>   -3.5329    1.0000 </r>
       <r>   -3.3408    1.0000 </r>
       <r>   -3.3072    1.0000 </r>
       <r>   -3.2807    1.0000 </r>
       <r>   -3.2456    1.0000 </r>
       <r>   -3.2143    1.0000 </r>
       <r>   -3.1852    1.0000 </r>
       <r>   -3.1357    1.0000 </r>
       <r>   -3.1206    1.0000 </r>
       <r>   -3.0274    1.0000 </r>
       <r>   -2.9743    1.0000 </r>
       <r>   -2.9395    1.0000 </r>
       <r>   -2.8692    1.0000 </r>
       <r>   -2.8601    1.0000 </r>
       <r>   -2.8196    1.0000 </r>
       <r>   -2.6577    1.0000 </r>
       <r>   -2.5854    1.0000 </r>
       <r>   -2.3037    1.0000 </r>
       <r>   -2.2538    1.0000 </r>
       <r>   -2.1299    1.0000 </r>
       <r>   -2.0642    1.0000 </r>
       <r>   -1.8296    1.0000 </r>
       <r>   -1.8018    1.0000 </r>
       <r>   -1.5957    1.0000 </r>
       <r>   -1.5755    1.0000 </r>
       <r>   -1.4543    1.0000 </r>
       <r>   -1.4139    1.0000 </r>
       <r>   -1.3743    1.0000 </r>
       <r>   -1.3524    1.0000 </r>
       <r>   -1.2737    1.0000 </r>
       <r>   -1.2473    1.0000 </r>
       <r>   -1.2107    1.0000 </r>
       <r>   -1.2100    1.0000 </r>
       <r>   -1.0395    1.0000 </r>
       <r>   -0.8503    1.0000 </r>
       <r>   -0.8165    1.0000 </r>
       <r>   -0.6968    1.0008 </r>
       <r>   -0.6809    1.0011 </r>
       <r>   -0.5989    1.0057 </r>
       <r>   -0.5512    1.0121 </r>
       <r>   -0.5451    1.0132 </r>
       <r>   -0.5223    1.0177 </r>
       <r>   -0.4594    1.0316 </r>
       <r>   -0.4220    1.0355 </r>
       <r>   -0.4177    1.0353 </r>
       <r>   -0.2833    0.8833 </r>
       <r>   -0.2286    0.7052 </r>
       <r>   -0.2162    0.6570 </r>
       <r>   -0.1914    0.5550 </r>
       <r>   -0.1521    0.3899 </r>
       <r>   -0.0415    0.0456 </r>
       <r>   -0.0227    0.0157 </r>
       <r>    0.0442   -0.0332 </r>
       <r>    0.0579   -0.0352 </r>
       <r>    0.2107   -0.0095 </r>
       <r>    0.9169   -0.0000 </r>
       <r>    1.2882   -0.0000 </r>
       <r>    1.3459   -0.0000 </r>
       <r>    1.5949   -0.0000 </r>
       <r>    1.8657   -0.0000 </r>
       <r>    1.9292   -0.0000 </r>
       <r>    2.4266   -0.0000 </r>
       <r>    2.5064   -0.0000 </r>
       <r>    3.0807   -0.0000 </r>
       <r>    3.6468   -0.0000 </r>
       <r>    3.8906   -0.0000 </r>
       <r>    4.2200   -0.0000 </r>
       <r>    4.5688   -0.0000 </r>
       <r>    5.2625   -0.0000 </r>
      </set>
      <set comment="kpoint 3">
       <r>  -22.3869    1.0000 </r>
       <r>  -10.5581    1.0000 </r>
       <r>   -7.9454    1.0000 </r>
       <r>   -7.0552    1.0000 </r>
       <r>   -6.8933    1.0000 </r>
       <r>   -6.6210    1.0000 </r>
       <r>   -6.4418    1.0000 </r>
       <r>   -6.3566    1.0000 </r>
       <r>   -6.0676    1.0000 </r>
       <r>   -5.7778    1.0000 </r>
       <r>   -5.7033    1.0000 </r>
       <r>   -5.6945    1.0000 </r>
       <r>   -5.6337    1.0000 </r>
       <r>   -5.5655    1.0000 </r>
       <r>   -5.5514    1.0000 </r>
       <r>   -5.4044    1.0000 </r>
       <r>   -5.2050    1.0000 </r>
       <r>   -5.1734    1.0000 </r>
       <r>   -5.1530    1.0000 </r>
       <r>   -5.0336    1.0000 </r>
       <r>   -4.9791    1.0000 </r>
       <r>   -4.9177    1.0000 </r>
       <r>   -4.6324    1.0000 </r>
       <r>   -4.6235    1.0000 </r>
       <r>   -4.5204    1.0000 </r>
       <r>   -4.4453    1.0000 </r>
       <r>   -4.4375    1.0000 </r>
       <r>   -4.3545    1.0000 </r>
       <r>   -4.2037    1.0000 </r>
       <r>   -4.1912    1.0000 </r>
       <r>   -4.1179    1.0000 </r>
       <r>   -4.0368    1.0000 </r>
       <r>   -3.8164    1.0000 </r>
       <r>   -3.8067    1.0000 </r>
       <r>   -3.7805    1.0000 </r>
       <r>   -3.6910    1.0000 </r>
       <r>   -3.5721    1.0000 </r>
       <r>   -3.5348    1.0000 </r>
       <r>   -3.5329    1.0000 </r>
       <r>   -3.3793    1.0000 </r>
       <r>   -3.3526    1.0000 </r>
       <r>   -3.2746    1.0000 </r>
       <r>   -3.2003    1.0000 </r>
       <r>   -3.1301    1.0000 </r>
       <r>   -2.9802    1.0000 </r>
       <r>   -2.9709    1.0000 </r>
       <r>   -2.9461    1.0000 </r>
       <r>   -2.9420    1.0000 </r>
       <r>   -2.8769    1.0000 </r>
       <r>   -2.8196    1.0000 </r>
       <r>   -2.8096    1.0000 </r>
       <r>   -2.6919    1.0000 </r>
       <r>   -2.6263    1.0000 </r>
       <r>   -2.6114    1.0000 </r>
       <r>   -2.6092    1.0000 </r>
       <r>   -2.5224    1.0000 </r>
       <r>   -2.4095    1.0000 </r>
       <r>   -2.3775    1.0000 </r>
       <r>   -2.2691    1.0000 </r>
       <r>   -2.2199    1.0000 </r>
       <r>   -2.1842    1.0000 </r>
       <r>   -2.1390    1.0000 </r>
       <r>   -2.0830    1.0000 </r>
       <r>   -1.8546    1.0000 </r>
       <r>   -1.7213    1.0000 </r>
       <r>   -1.7201    1.0000 </r>
       <r>   -1.6511    1.0000 </r>
       <r>   -1.5836    1.0000 </r>
       <r>   -1.5015    1.0000 </r>
       <r>   -1.4587    1.0000 </r>
       <r>   -1.4361    1.0000 </r>
       <r>   -1.3770    1.0000 </r>
       <r>   -1.2941    1.0000 </r>
       <r>   -1.2866    1.0000 </r>
       <r>   -1.2348    1.0000 </r>
       <r>   -1.1685    1.0000 </r>
       <r>   -1.1498    1.0000 </r>
       <r>   -0.9950    1.0000 </r>
       <r>   -0.8529    1.0000 </r>
       <r>   -0.7026    1.0007 </r>
       <r>   -0.5920    1.0064 </r>
       <r>   -0.5618    1.0104 </r>
       <r>   -0.4131    1.0350 </r>
       <r>   -0.2327    0.7206 </r>
       <r>   -0.2301    0.7111 </r>
       <r>   -0.2195    0.6700 </r>
       <r>   -0.1293    0.2990 </r>
       <r>    0.0313   -0.0295 </r>
       <r>    0.0775   -0.0350 </r>
       <r>    0.2430   -0.0056 </r>
       <r>    0.9893   -0.0000 </r>
       <r>    1.6217   -0.0000 </r>
       <r>    1.6619   -0.0000 </r>
       <r>    1.8865   -0.0000 </r>
       <r>    1.9074   -0.0000 </r>
       <r>    2.3333   -0.0000 </r>
       <r>    2.7394   -0.0000 </r>
       <r>    2.8625   -0.0000 </r>
       <r>    3.3078   -0.0000 </r>
       <r>    3.9989   -0.0000 </r>
       <r>    4.3121   -0.0000 </r>
       <r>    4.7196   -0.0000 </r>
       <r>    5.4215    0.0000 </r>
       <r>    5.9216    0.0000 </r>
      </set>
      <set comment="kpoint 4">
       <r>  -22.3877    1.0000 </r>
       <r>  -10.7290    1.0000 </r>
       <r>   -8.7892    1.0000 </r>
       <r>   -7.5184    1.0000 </r>
       <r>   -6.8722    1.0000 </r>
       <r>   -6.6469    1.0000 </r>
       <r>   -6.5436    1.0000 </r>
       <r>   -6.4784    1.0000 </r>
       <r>   -6.4468    1.0000 </r>
       <r>   -6.2655    1.0000 </r>
       <r>   -6.1944    1.0000 </r>
       <r>   -6.1668    1.0000 </r>
       <r>   -6.0838    1.0000 </r>
       <r>   -6.0153    1.0000 </r>
       <r>   -6.0078    1.0000 </r>
       <r>   -5.6957    1.0000 </r>
       <r>   -5.6661    1.0000 </r>
       <r>   -5.6546    1.0000 </r>
       <r>   -5.5494    1.0000 </r>
       <r>   -5.4045    1.0000 </r>
       <r>   -5.4001    1.0000 </r>
       <r>   -5.3041    1.0000 </r>
       <r>   -5.2158    1.0000 </r>
       <r>   -4.9519    1.0000 </r>
       <r>   -4.6559    1.0000 </r>
       <r>   -4.6380    1.0000 </r>
       <r>   -4.3188    1.0000 </r>
       <r>   -3.9993    1.0000 </r>
       <r>   -3.9867    1.0000 </r>
       <r>   -3.9049    1.0000 </r>
       <r>   -3.8434    1.0000 </r>
       <r>   -3.7192    1.0000 </r>
       <r>   -3.7013    1.0000 </r>
       <r>   -3.6373    1.0000 </r>
       <r>   -3.6302    1.0000 </r>
       <r>   -3.5329    1.0000 </r>
       <r>   -3.3408    1.0000 </r>
       <r>   -3.3071    1.0000 </r>
       <r>   -3.2807    1.0000 </r>
       <r>   -3.2455    1.0000 </r>
       <r>   -3.2143    1.0000 </r>
       <r>   -3.1851    1.0000 </r>
       <r>   -3.1357    1.0000 </r>
       <r>   -3.1206    1.0000 </r>
       <r>   -3.0274    1.0000 </r>
       <r>   -2.9743    1.0000 </r>
       <r>   -2.9394    1.0000 </r>
       <r>   -2.8691    1.0000 </r>
       <r>   -2.8601    1.0000 </r>
       <r>   -2.8196    1.0000 </r>
       <r>   -2.6577    1.0000 </r>
       <r>   -2.5854    1.0000 </r>
       <r>   -2.3037    1.0000 </r>
       <r>   -2.2538    1.0000 </r>
       <r>   -2.1299    1.0000 </r>
       <r>   -2.0642    1.0000 </r>
       <r>   -1.8296    1.0000 </r>
       <r>   -1.8017    1.0000 </r>
       <r>   -1.5957    1.0000 </r>
       <r>   -1.5754    1.0000 </r>
       <r>   -1.4544    1.0000 </r>
       <r>   -1.4139    1.0000 </r>
       <r>   -1.3743    1.0000 </r>
       <r>   -1.3524    1.0000 </r>
       <r>   -1.2737    1.0000 </r>
       <r>   -1.2473    1.0000 </r>
       <r>   -1.2107    1.0000 </r>
       <r>   -1.2100    1.0000 </r>
       <r>   -1.0395    1.0000 </r>
       <r>   -0.8503    1.0000 </r>
       <r>   -0.8165    1.0000 </r>
       <r>   -0.6968    1.0008 </r>
       <r>   -0.6809    1.0011 </r>
       <r>   -0.5989    1.0057 </r>
       <r>   -0.5512    1.0121 </r>
       <r>   -0.5451    1.0132 </r>
       <r>   -0.5223    1.0177 </r>
       <r>   -0.4594    1.0316 </r>
       <r>   -0.4220    1.0355 </r>
       <r>   -0.4177    1.0353 </r>
       <r>   -0.2834    0.8835 </r>
       <r>   -0.2286    0.7052 </r>
       <r>   -0.2163    0.6571 </r>
       <r>   -0.1914    0.5548 </r>
       <r>   -0.1520    0.3896 </r>
       <r>   -0.0414    0.0454 </r>
       <r>   -0.0226    0.0156 </r>
       <r>    0.0442   -0.0332 </r>
       <r>    0.0579   -0.0352 </r>
       <r>    0.2106   -0.0095 </r>
       <r>    0.9170   -0.0000 </r>
       <r>    1.2882   -0.0000 </r>
       <r>    1.3459   -0.0000 </r>
       <r>    1.5949   -0.0000 </r>
       <r>    1.8657   -0.0000 </r>
       <r>    1.9292   -0.0000 </r>
       <r>    2.4266   -0.0000 </r>
       <r>    2.5063   -0.0000 </r>
       <r>    3.0807   -0.0000 </r>
       <r>    3.6468   -0.0000 </r>
       <r>    3.8906   -0.0000 </r>
       <r>    4.2200   -0.0000 </r>
       <r>    4.5688   -0.0000 </r>
       <r>    5.2706   -0.0000 </r>
      </set>
      <set comment="kpoint 5">
       <r>  -22.3877    1.0000 </r>
       <r>  -10.7290    1.0000 </r>
       <r>   -8.7892    1.0000 </r>
       <r>   -7.5184    1.0000 </r>
       <r>   -6.8723    1.0000 </r>
       <r>   -6.6469    1.0000 </r>
       <r>   -6.5434    1.0000 </r>
       <r>   -6.4784    1.0000 </r>
       <r>   -6.4469    1.0000 </r>
       <r>   -6.2654    1.0000 </r>
       <r>   -6.1944    1.0000 </r>
       <r>   -6.1668    1.0000 </r>
       <r>   -6.0838    1.0000 </r>
       <r>   -6.0153    1.0000 </r>
       <r>   -6.0078    1.0000 </r>
       <r>   -5.6957    1.0000 </r>
       <r>   -5.6660    1.0000 </r>
       <r>   -5.6546    1.0000 </r>
       <r>   -5.5494    1.0000 </r>
       <r>   -5.4046    1.0000 </r>
       <r>   -5.3999    1.0000 </r>
       <r>   -5.3041    1.0000 </r>
       <r>   -5.2158    1.0000 </r>
       <r>   -4.9519    1.0000 </r>
       <r>   -4.6558    1.0000 </r>
       <r>   -4.6381    1.0000 </r>
       <r>   -4.3188    1.0000 </r>
       <r>   -3.9993    1.0000 </r>
       <r>   -3.9867    1.0000 </r>
       <r>   -3.9048    1.0000 </r>
       <r>   -3.8435    1.0000 </r>
       <r>   -3.7190    1.0000 </r>
       <r>   -3.7013    1.0000 </r>
       <r>   -3.6374    1.0000 </r>
       <r>   -3.6302    1.0000 </r>
       <r>   -3.5329    1.0000 </r>
       <r>   -3.3407    1.0000 </r>
       <r>   -3.3073    1.0000 </r>
       <r>   -3.2807    1.0000 </r>
       <r>   -3.2456    1.0000 </r>
       <r>   -3.2143    1.0000 </r>
       <r>   -3.1852    1.0000 </r>
       <r>   -3.1357    1.0000 </r>
       <r>   -3.1204    1.0000 </r>
       <r>   -3.0274    1.0000 </r>
       <r>   -2.9742    1.0000 </r>
       <r>   -2.9395    1.0000 </r>
       <r>   -2.8692    1.0000 </r>
       <r>   -2.8601    1.0000 </r>
       <r>   -2.8196    1.0000 </r>
       <r>   -2.6578    1.0000 </r>
       <r>   -2.5853    1.0000 </r>
       <r>   -2.3037    1.0000 </r>
       <r>   -2.2538    1.0000 </r>
       <r>   -2.1299    1.0000 </r>
       <r>   -2.0642    1.0000 </r>
       <r>   -1.8296    1.0000 </r>
       <r>   -1.8018    1.0000 </r>
       <r>   -1.5956    1.0000 </r>
       <r>   -1.5755    1.0000 </r>
       <r>   -1.4542    1.0000 </r>
       <r>   -1.4139    1.0000 </r>
       <r>   -1.3744    1.0000 </r>
       <r>   -1.3524    1.0000 </r>
       <r>   -1.2736    1.0000 </r>
       <r>   -1.2473    1.0000 </r>
       <r>   -1.2107    1.0000 </r>
       <r>   -1.2100    1.0000 </r>
       <r>   -1.0394    1.0000 </r>
       <r>   -0.8503    1.0000 </r>
       <r>   -0.8165    1.0000 </r>
       <r>   -0.6969    1.0008 </r>
       <r>   -0.6809    1.0011 </r>
       <r>   -0.5989    1.0057 </r>
       <r>   -0.5512    1.0121 </r>
       <r>   -0.5450    1.0132 </r>
       <r>   -0.5224    1.0177 </r>
       <r>   -0.4593    1.0316 </r>
       <r>   -0.4220    1.0355 </r>
       <r>   -0.4178    1.0353 </r>
       <r>   -0.2832    0.8832 </r>
       <r>   -0.2286    0.7051 </r>
       <r>   -0.2162    0.6569 </r>
       <r>   -0.1915    0.5552 </r>
       <r>   -0.1522    0.3902 </r>
       <r>   -0.0416    0.0458 </r>
       <r>   -0.0227    0.0157 </r>
       <r>    0.0442   -0.0332 </r>
       <r>    0.0580   -0.0352 </r>
       <r>    0.2108   -0.0095 </r>
       <r>    0.9169   -0.0000 </r>
       <r>    1.2883   -0.0000 </r>
       <r>    1.3459   -0.0000 </r>
       <r>    1.5949   -0.0000 </r>
       <r>    1.8657   -0.0000 </r>
       <r>    1.9293   -0.0000 </r>
       <r>    2.4265   -0.0000 </r>
       <r>    2.5065   -0.0000 </r>
       <r>    3.0807   -0.0000 </r>
       <r>    3.6468   -0.0000 </r>
       <r>    3.8905   -0.0000 </r>
       <r>    4.2199   -0.0000 </r>
       <r>    4.5687   -0.0000 </r>
       <r>    5.2634   -0.0000 </r>
      </set>
      <set comment="kpoint 6">
       <r>  -22.3868    1.0000 </r>
       <r>  -10.5914    1.0000 </r>
       <r>   -8.2017    1.0000 </r>
       <r>   -7.0950    1.0000 </r>
       <r>   -6.6639    1.0000 </r>
       <r>   -6.6215    1.0000 </r>
       <r>   -6.4194    1.0000 </r>
       <r>   -6.3543    1.0000 </r>
       <r>   -6.2845    1.0000 </r>
       <r>   -5.9250    1.0000 </r>
       <r>   -5.9162    1.0000 </r>
       <r>   -5.8548    1.0000 </r>
       <r>   -5.7101    1.0000 </r>
       <r>   -5.6438    1.0000 </r>
       <r>   -5.6178    1.0000 </r>
       <r>   -5.4702    1.0000 </r>
       <r>   -5.3639    1.0000 </r>
       <r>   -5.2997    1.0000 </r>
       <r>   -5.2579    1.0000 </r>
       <r>   -5.2171    1.0000 </r>
       <r>   -5.0255    1.0000 </r>
       <r>   -4.9010    1.0000 </r>
       <r>   -4.8725    1.0000 </r>
       <r>   -4.7074    1.0000 </r>
       <r>   -4.5511    1.0000 </r>
       <r>   -4.5142    1.0000 </r>
       <r>   -4.3964    1.0000 </r>
       <r>   -4.3320    1.0000 </r>
       <r>   -4.2220    1.0000 </r>
       <r>   -4.0912    1.0000 </r>
       <r>   -4.0298    1.0000 </r>
       <r>   -3.9588    1.0000 </r>
       <r>   -3.8779    1.0000 </r>
       <r>   -3.6908    1.0000 </r>
       <r>   -3.6492    1.0000 </r>
       <r>   -3.6007    1.0000 </r>
       <r>   -3.5400    1.0000 </r>
       <r>   -3.4411    1.0000 </r>
       <r>   -3.3918    1.0000 </r>
       <r>   -3.3401    1.0000 </r>
       <r>   -3.3226    1.0000 </r>
       <r>   -3.2882    1.0000 </r>
       <r>   -3.2306    1.0000 </r>
       <r>   -3.1481    1.0000 </r>
       <r>   -3.1406    1.0000 </r>
       <r>   -3.0888    1.0000 </r>
       <r>   -3.0021    1.0000 </r>
       <r>   -2.9073    1.0000 </r>
       <r>   -2.8452    1.0000 </r>
       <r>   -2.7962    1.0000 </r>
       <r>   -2.7636    1.0000 </r>
       <r>   -2.5978    1.0000 </r>
       <r>   -2.4938    1.0000 </r>
       <r>   -2.4348    1.0000 </r>
       <r>   -2.4055    1.0000 </r>
       <r>   -2.3857    1.0000 </r>
       <r>   -2.3354    1.0000 </r>
       <r>   -2.2851    1.0000 </r>
       <r>   -2.1672    1.0000 </r>
       <r>   -2.1130    1.0000 </r>
       <r>   -2.0921    1.0000 </r>
       <r>   -2.0627    1.0000 </r>
       <r>   -1.9793    1.0000 </r>
       <r>   -1.9318    1.0000 </r>
       <r>   -1.6080    1.0000 </r>
       <r>   -1.5868    1.0000 </r>
       <r>   -1.5417    1.0000 </r>
       <r>   -1.4906    1.0000 </r>
       <r>   -1.4416    1.0000 </r>
       <r>   -1.3583    1.0000 </r>
       <r>   -1.1742    1.0000 </r>
       <r>   -1.1528    1.0000 </r>
       <r>   -1.1190    1.0000 </r>
       <r>   -1.1029    1.0000 </r>
       <r>   -1.0600    1.0000 </r>
       <r>   -0.8373    1.0000 </r>
       <r>   -0.6779    1.0012 </r>
       <r>   -0.6075    1.0049 </r>
       <r>   -0.5750    1.0084 </r>
       <r>   -0.5083    1.0208 </r>
       <r>   -0.4661    1.0303 </r>
       <r>   -0.4381    1.0347 </r>
       <r>   -0.3714    1.0211 </r>
       <r>   -0.3041    0.9324 </r>
       <r>   -0.2117    0.6388 </r>
       <r>   -0.1817    0.5141 </r>
       <r>   -0.1126    0.2376 </r>
       <r>   -0.0167    0.0078 </r>
       <r>    0.0119   -0.0193 </r>
       <r>    0.1474   -0.0217 </r>
       <r>    0.1796   -0.0148 </r>
       <r>    0.8143   -0.0000 </r>
       <r>    1.0463   -0.0000 </r>
       <r>    1.1338   -0.0000 </r>
       <r>    2.3741   -0.0000 </r>
       <r>    2.8294   -0.0000 </r>
       <r>    2.9662   -0.0000 </r>
       <r>    3.3902   -0.0000 </r>
       <r>    3.5965   -0.0000 </r>
       <r>    3.7184   -0.0000 </r>
       <r>    3.9382   -0.0000 </r>
       <r>    4.5589   -0.0000 </r>
       <r>    4.9816   -0.0000 </r>
       <r>    5.3980    0.0000 </r>
      </set>
      <set comment="kpoint 7">
       <r>  -22.3866    1.0000 </r>
       <r>  -10.5040    1.0000 </r>
       <r>   -7.2676    1.0000 </r>
       <r>   -7.2091    1.0000 </r>
       <r>   -6.7356    1.0000 </r>
       <r>   -6.6166    1.0000 </r>
       <r>   -6.3925    1.0000 </r>
       <r>   -6.1823    1.0000 </r>
       <r>   -6.0964    1.0000 </r>
       <r>   -5.9328    1.0000 </r>
       <r>   -5.5892    1.0000 </r>
       <r>   -5.4030    1.0000 </r>
       <r>   -5.3195    1.0000 </r>
       <r>   -5.2737    1.0000 </r>
       <r>   -5.2252    1.0000 </r>
       <r>   -5.1526    1.0000 </r>
       <r>   -5.0434    1.0000 </r>
       <r>   -4.9792    1.0000 </r>
       <r>   -4.9317    1.0000 </r>
       <r>   -4.7795    1.0000 </r>
       <r>   -4.7629    1.0000 </r>
       <r>   -4.7494    1.0000 </r>
       <r>   -4.7107    1.0000 </r>
       <r>   -4.6145    1.0000 </r>
       <r>   -4.5715    1.0000 </r>
       <r>   -4.4066    1.0000 </r>
       <r>   -4.3913    1.0000 </r>
       <r>   -4.3795    1.0000 </r>
       <r>   -4.3436    1.0000 </r>
       <r>   -4.3003    1.0000 </r>
       <r>   -4.2569    1.0000 </r>
       <r>   -4.2143    1.0000 </r>
       <r>   -4.1748    1.0000 </r>
       <r>   -3.9671    1.0000 </r>
       <r>   -3.8180    1.0000 </r>
       <r>   -3.7617    1.0000 </r>
       <r>   -3.7388    1.0000 </r>
       <r>   -3.7127    1.0000 </r>
       <r>   -3.6114    1.0000 </r>
       <r>   -3.5811    1.0000 </r>
       <r>   -3.5584    1.0000 </r>
       <r>   -3.5182    1.0000 </r>
       <r>   -3.4985    1.0000 </r>
       <r>   -3.4189    1.0000 </r>
       <r>   -3.3403    1.0000 </r>
       <r>   -3.1899    1.0000 </r>
       <r>   -3.1542    1.0000 </r>
       <r>   -3.0591    1.0000 </r>
       <r>   -2.9702    1.0000 </r>
       <r>   -2.9332    1.0000 </r>
       <r>   -2.8819    1.0000 </r>
       <r>   -2.8225    1.0000 </r>
       <r>   -2.8042    1.0000 </r>
       <r>   -2.7922    1.0000 </r>
       <r>   -2.6166    1.0000 </r>
       <r>   -2.5442    1.0000 </r>
       <r>   -2.3450    1.0000 </r>
       <r>   -2.2712    1.0000 </r>
       <r>   -2.2120    1.0000 </r>
       <r>   -2.1851    1.0000 </r>
       <r>   -2.1509    1.0000 </r>
       <r>   -2.0902    1.0000 </r>
       <r>   -1.9638    1.0000 </r>
       <r>   -1.8657    1.0000 </r>
       <r>   -1.8302    1.0000 </r>
       <r>   -1.7827    1.0000 </r>
       <r>   -1.6668    1.0000 </r>
       <r>   -1.6273    1.0000 </r>
       <r>   -1.4887    1.0000 </r>
       <r>   -1.4873    1.0000 </r>
       <r>   -1.3744    1.0000 </r>
       <r>   -1.3297    1.0000 </r>
       <r>   -1.2801    1.0000 </r>
       <r>   -1.2528    1.0000 </r>
       <r>   -1.1681    1.0000 </r>
       <r>   -1.0554    1.0000 </r>
       <r>   -1.0239    1.0000 </r>
       <r>   -0.9062    1.0000 </r>
       <r>   -0.8740    1.0000 </r>
       <r>   -0.8009    1.0000 </r>
       <r>   -0.7064    1.0006 </r>
       <r>   -0.5509    1.0121 </r>
       <r>   -0.4956    1.0237 </r>
       <r>   -0.4403    1.0345 </r>
       <r>   -0.4174    1.0353 </r>
       <r>   -0.3701    1.0203 </r>
       <r>   -0.2285    0.7049 </r>
       <r>   -0.2071    0.6200 </r>
       <r>    0.0130   -0.0201 </r>
       <r>    0.2045   -0.0104 </r>
       <r>    0.2560   -0.0044 </r>
       <r>    0.2875   -0.0024 </r>
       <r>    1.0992   -0.0000 </r>
       <r>    1.6687   -0.0000 </r>
       <r>    2.0367   -0.0000 </r>
       <r>    2.8387   -0.0000 </r>
       <r>    3.1440   -0.0000 </r>
       <r>    3.5211   -0.0000 </r>
       <r>    3.6975   -0.0000 </r>
       <r>    4.3669   -0.0000 </r>
       <r>    4.7021   -0.0000 </r>
       <r>    5.0526   -0.0000 </r>
       <r>    5.3185    0.0000 </r>
       <r>    5.4883    0.0000 </r>
      </set>
      <set comment="kpoint 8">
       <r>  -22.3868    1.0000 </r>
       <r>  -10.5914    1.0000 </r>
       <r>   -8.2017    1.0000 </r>
       <r>   -7.0950    1.0000 </r>
       <r>   -6.6639    1.0000 </r>
       <r>   -6.6215    1.0000 </r>
       <r>   -6.4194    1.0000 </r>
       <r>   -6.3543    1.0000 </r>
       <r>   -6.2846    1.0000 </r>
       <r>   -5.9250    1.0000 </r>
       <r>   -5.9162    1.0000 </r>
       <r>   -5.8548    1.0000 </r>
       <r>   -5.7101    1.0000 </r>
       <r>   -5.6437    1.0000 </r>
       <r>   -5.6178    1.0000 </r>
       <r>   -5.4702    1.0000 </r>
       <r>   -5.3640    1.0000 </r>
       <r>   -5.2996    1.0000 </r>
       <r>   -5.2579    1.0000 </r>
       <r>   -5.2171    1.0000 </r>
       <r>   -5.0256    1.0000 </r>
       <r>   -4.9010    1.0000 </r>
       <r>   -4.8725    1.0000 </r>
       <r>   -4.7074    1.0000 </r>
       <r>   -4.5511    1.0000 </r>
       <r>   -4.5142    1.0000 </r>
       <r>   -4.3964    1.0000 </r>
       <r>   -4.3320    1.0000 </r>
       <r>   -4.2220    1.0000 </r>
       <r>   -4.0912    1.0000 </r>
       <r>   -4.0298    1.0000 </r>
       <r>   -3.9588    1.0000 </r>
       <r>   -3.8780    1.0000 </r>
       <r>   -3.6909    1.0000 </r>
       <r>   -3.6490    1.0000 </r>
       <r>   -3.6006    1.0000 </r>
       <r>   -3.5400    1.0000 </r>
       <r>   -3.4412    1.0000 </r>
       <r>   -3.3918    1.0000 </r>
       <r>   -3.3400    1.0000 </r>
       <r>   -3.3226    1.0000 </r>
       <r>   -3.2882    1.0000 </r>
       <r>   -3.2306    1.0000 </r>
       <r>   -3.1480    1.0000 </r>
       <r>   -3.1405    1.0000 </r>
       <r>   -3.0888    1.0000 </r>
       <r>   -3.0021    1.0000 </r>
       <r>   -2.9075    1.0000 </r>
       <r>   -2.8452    1.0000 </r>
       <r>   -2.7962    1.0000 </r>
       <r>   -2.7636    1.0000 </r>
       <r>   -2.5979    1.0000 </r>
       <r>   -2.4938    1.0000 </r>
       <r>   -2.4347    1.0000 </r>
       <r>   -2.4054    1.0000 </r>
       <r>   -2.3857    1.0000 </r>
       <r>   -2.3354    1.0000 </r>
       <r>   -2.2852    1.0000 </r>
       <r>   -2.1671    1.0000 </r>
       <r>   -2.1129    1.0000 </r>
       <r>   -2.0921    1.0000 </r>
       <r>   -2.0627    1.0000 </r>
       <r>   -1.9793    1.0000 </r>
       <r>   -1.9317    1.0000 </r>
       <r>   -1.6081    1.0000 </r>
       <r>   -1.5867    1.0000 </r>
       <r>   -1.5414    1.0000 </r>
       <r>   -1.4906    1.0000 </r>
       <r>   -1.4417    1.0000 </r>
       <r>   -1.3585    1.0000 </r>
       <r>   -1.1743    1.0000 </r>
       <r>   -1.1527    1.0000 </r>
       <r>   -1.1190    1.0000 </r>
       <r>   -1.1029    1.0000 </r>
       <r>   -1.0600    1.0000 </r>
       <r>   -0.8373    1.0000 </r>
       <r>   -0.6779    1.0012 </r>
       <r>   -0.6076    1.0048 </r>
       <r>   -0.5751    1.0084 </r>
       <r>   -0.5084    1.0208 </r>
       <r>   -0.4659    1.0303 </r>
       <r>   -0.4379    1.0347 </r>
       <r>   -0.3714    1.0211 </r>
       <r>   -0.3042    0.9326 </r>
       <r>   -0.2116    0.6385 </r>
       <r>   -0.1817    0.5140 </r>
       <r>   -0.1126    0.2376 </r>
       <r>   -0.0167    0.0079 </r>
       <r>    0.0119   -0.0193 </r>
       <r>    0.1474   -0.0217 </r>
       <r>    0.1796   -0.0148 </r>
       <r>    0.8143   -0.0000 </r>
       <r>    1.0463   -0.0000 </r>
       <r>    1.1338   -0.0000 </r>
       <r>    2.3741   -0.0000 </r>
       <r>    2.8295   -0.0000 </r>
       <r>    2.9662   -0.0000 </r>
       <r>    3.3901   -0.0000 </r>
       <r>    3.5964   -0.0000 </r>
       <r>    3.7182   -0.0000 </r>
       <r>    3.9382   -0.0000 </r>
       <r>    4.5590   -0.0000 </r>
       <r>    4.9819   -0.0000 </r>
       <r>    5.3979    0.0000 </r>
      </set>
      <set comment="kpoint 9">
       <r>  -22.3869    1.0000 </r>
       <r>  -10.5581    1.0000 </r>
       <r>   -7.9454    1.0000 </r>
       <r>   -7.0552    1.0000 </r>
       <r>   -6.8933    1.0000 </r>
       <r>   -6.6210    1.0000 </r>
       <r>   -6.4418    1.0000 </r>
       <r>   -6.3566    1.0000 </r>
       <r>   -6.0676    1.0000 </r>
       <r>   -5.7778    1.0000 </r>
       <r>   -5.7033    1.0000 </r>
       <r>   -5.6945    1.0000 </r>
       <r>   -5.6337    1.0000 </r>
       <r>   -5.5656    1.0000 </r>
       <r>   -5.5514    1.0000 </r>
       <r>   -5.4045    1.0000 </r>
       <r>   -5.2050    1.0000 </r>
       <r>   -5.1734    1.0000 </r>
       <r>   -5.1530    1.0000 </r>
       <r>   -5.0337    1.0000 </r>
       <r>   -4.9791    1.0000 </r>
       <r>   -4.9176    1.0000 </r>
       <r>   -4.6324    1.0000 </r>
       <r>   -4.6235    1.0000 </r>
       <r>   -4.5203    1.0000 </r>
       <r>   -4.4454    1.0000 </r>
       <r>   -4.4375    1.0000 </r>
       <r>   -4.3545    1.0000 </r>
       <r>   -4.2036    1.0000 </r>
       <r>   -4.1913    1.0000 </r>
       <r>   -4.1180    1.0000 </r>
       <r>   -4.0368    1.0000 </r>
       <r>   -3.8163    1.0000 </r>
       <r>   -3.8067    1.0000 </r>
       <r>   -3.7805    1.0000 </r>
       <r>   -3.6910    1.0000 </r>
       <r>   -3.5721    1.0000 </r>
       <r>   -3.5348    1.0000 </r>
       <r>   -3.5329    1.0000 </r>
       <r>   -3.3793    1.0000 </r>
       <r>   -3.3525    1.0000 </r>
       <r>   -3.2746    1.0000 </r>
       <r>   -3.2003    1.0000 </r>
       <r>   -3.1300    1.0000 </r>
       <r>   -2.9802    1.0000 </r>
       <r>   -2.9708    1.0000 </r>
       <r>   -2.9461    1.0000 </r>
       <r>   -2.9421    1.0000 </r>
       <r>   -2.8770    1.0000 </r>
       <r>   -2.8195    1.0000 </r>
       <r>   -2.8096    1.0000 </r>
       <r>   -2.6919    1.0000 </r>
       <r>   -2.6263    1.0000 </r>
       <r>   -2.6114    1.0000 </r>
       <r>   -2.6092    1.0000 </r>
       <r>   -2.5224    1.0000 </r>
       <r>   -2.4095    1.0000 </r>
       <r>   -2.3775    1.0000 </r>
       <r>   -2.2691    1.0000 </r>
       <r>   -2.2199    1.0000 </r>
       <r>   -2.1842    1.0000 </r>
       <r>   -2.1389    1.0000 </r>
       <r>   -2.0831    1.0000 </r>
       <r>   -1.8546    1.0000 </r>
       <r>   -1.7213    1.0000 </r>
       <r>   -1.7201    1.0000 </r>
       <r>   -1.6510    1.0000 </r>
       <r>   -1.5837    1.0000 </r>
       <r>   -1.5016    1.0000 </r>
       <r>   -1.4586    1.0000 </r>
       <r>   -1.4362    1.0000 </r>
       <r>   -1.3770    1.0000 </r>
       <r>   -1.2941    1.0000 </r>
       <r>   -1.2866    1.0000 </r>
       <r>   -1.2348    1.0000 </r>
       <r>   -1.1686    1.0000 </r>
       <r>   -1.1498    1.0000 </r>
       <r>   -0.9950    1.0000 </r>
       <r>   -0.8529    1.0000 </r>
       <r>   -0.7026    1.0007 </r>
       <r>   -0.5920    1.0064 </r>
       <r>   -0.5617    1.0104 </r>
       <r>   -0.4131    1.0350 </r>
       <r>   -0.2329    0.7213 </r>
       <r>   -0.2303    0.7116 </r>
       <r>   -0.2193    0.6691 </r>
       <r>   -0.1292    0.2985 </r>
       <r>    0.0315   -0.0295 </r>
       <r>    0.0774   -0.0350 </r>
       <r>    0.2429   -0.0056 </r>
       <r>    0.9893   -0.0000 </r>
       <r>    1.6217   -0.0000 </r>
       <r>    1.6619   -0.0000 </r>
       <r>    1.8865   -0.0000 </r>
       <r>    1.9074   -0.0000 </r>
       <r>    2.3333   -0.0000 </r>
       <r>    2.7395   -0.0000 </r>
       <r>    2.8624   -0.0000 </r>
       <r>    3.3078   -0.0000 </r>
       <r>    3.9989   -0.0000 </r>
       <r>    4.3120   -0.0000 </r>
       <r>    4.7196   -0.0000 </r>
       <r>    5.4215    0.0000 </r>
       <r>    5.9216    0.0000 </r>
      </set>
      <set comment="kpoint 10">
       <r>  -22.3868    1.0000 </r>
       <r>  -10.5914    1.0000 </r>
       <r>   -8.2017    1.0000 </r>
       <r>   -7.0950    1.0000 </r>
       <r>   -6.6639    1.0000 </r>
       <r>   -6.6215    1.0000 </r>
       <r>   -6.4194    1.0000 </r>
       <r>   -6.3543    1.0000 </r>
       <r>   -6.2845    1.0000 </r>
       <r>   -5.9250    1.0000 </r>
       <r>   -5.9162    1.0000 </r>
       <r>   -5.8548    1.0000 </r>
       <r>   -5.7101    1.0000 </r>
       <r>   -5.6437    1.0000 </r>
       <r>   -5.6178    1.0000 </r>
       <r>   -5.4702    1.0000 </r>
       <r>   -5.3639    1.0000 </r>
       <r>   -5.2996    1.0000 </r>
       <r>   -5.2579    1.0000 </r>
       <r>   -5.2171    1.0000 </r>
       <r>   -5.0255    1.0000 </r>
       <r>   -4.9010    1.0000 </r>
       <r>   -4.8725    1.0000 </r>
       <r>   -4.7074    1.0000 </r>
       <r>   -4.5511    1.0000 </r>
       <r>   -4.5142    1.0000 </r>
       <r>   -4.3964    1.0000 </r>
       <r>   -4.3320    1.0000 </r>
       <r>   -4.2220    1.0000 </r>
       <r>   -4.0912    1.0000 </r>
       <r>   -4.0298    1.0000 </r>
       <r>   -3.9588    1.0000 </r>
       <r>   -3.8779    1.0000 </r>
       <r>   -3.6908    1.0000 </r>
       <r>   -3.6491    1.0000 </r>
       <r>   -3.6007    1.0000 </r>
       <r>   -3.5400    1.0000 </r>
       <r>   -3.4412    1.0000 </r>
       <r>   -3.3918    1.0000 </r>
       <r>   -3.3400    1.0000 </r>
       <r>   -3.3226    1.0000 </r>
       <r>   -3.2882    1.0000 </r>
       <r>   -3.2306    1.0000 </r>
       <r>   -3.1481    1.0000 </r>
       <r>   -3.1406    1.0000 </r>
       <r>   -3.0888    1.0000 </r>
       <r>   -3.0021    1.0000 </r>
       <r>   -2.9074    1.0000 </r>
       <r>   -2.8452    1.0000 </r>
       <r>   -2.7962    1.0000 </r>
       <r>   -2.7636    1.0000 </r>
       <r>   -2.5979    1.0000 </r>
       <r>   -2.4938    1.0000 </r>
       <r>   -2.4348    1.0000 </r>
       <r>   -2.4055    1.0000 </r>
       <r>   -2.3857    1.0000 </r>
       <r>   -2.3354    1.0000 </r>
       <r>   -2.2851    1.0000 </r>
       <r>   -2.1671    1.0000 </r>
       <r>   -2.1129    1.0000 </r>
       <r>   -2.0921    1.0000 </r>
       <r>   -2.0627    1.0000 </r>
       <r>   -1.9793    1.0000 </r>
       <r>   -1.9318    1.0000 </r>
       <r>   -1.6080    1.0000 </r>
       <r>   -1.5867    1.0000 </r>
       <r>   -1.5415    1.0000 </r>
       <r>   -1.4906    1.0000 </r>
       <r>   -1.4417    1.0000 </r>
       <r>   -1.3584    1.0000 </r>
       <r>   -1.1743    1.0000 </r>
       <r>   -1.1528    1.0000 </r>
       <r>   -1.1190    1.0000 </r>
       <r>   -1.1029    1.0000 </r>
       <r>   -1.0600    1.0000 </r>
       <r>   -0.8373    1.0000 </r>
       <r>   -0.6779    1.0012 </r>
       <r>   -0.6076    1.0049 </r>
       <r>   -0.5751    1.0084 </r>
       <r>   -0.5083    1.0208 </r>
       <r>   -0.4660    1.0303 </r>
       <r>   -0.4380    1.0347 </r>
       <r>   -0.3714    1.0211 </r>
       <r>   -0.3041    0.9325 </r>
       <r>   -0.2117    0.6387 </r>
       <r>   -0.1817    0.5141 </r>
       <r>   -0.1126    0.2376 </r>
       <r>   -0.0167    0.0078 </r>
       <r>    0.0119   -0.0193 </r>
       <r>    0.1474   -0.0217 </r>
       <r>    0.1796   -0.0148 </r>
       <r>    0.8143   -0.0000 </r>
       <r>    1.0463   -0.0000 </r>
       <r>    1.1338   -0.0000 </r>
       <r>    2.3741   -0.0000 </r>
       <r>    2.8294   -0.0000 </r>
       <r>    2.9662   -0.0000 </r>
       <r>    3.3902   -0.0000 </r>
       <r>    3.5965   -0.0000 </r>
       <r>    3.7183   -0.0000 </r>
       <r>    3.9382   -0.0000 </r>
       <r>    4.5588   -0.0000 </r>
       <r>    4.9816   -0.0000 </r>
       <r>    5.3980    0.0000 </r>
      </set>
      <set comment="kpoint 11">
       <r>  -22.3869    1.0000 </r>
       <r>  -10.5581    1.0000 </r>
       <r>   -7.9454    1.0000 </r>
       <r>   -7.0552    1.0000 </r>
       <r>   -6.8932    1.0000 </r>
       <r>   -6.6210    1.0000 </r>
       <r>   -6.4419    1.0000 </r>
       <r>   -6.3566    1.0000 </r>
       <r>   -6.0676    1.0000 </r>
       <r>   -5.7778    1.0000 </r>
       <r>   -5.7034    1.0000 </r>
       <r>   -5.6946    1.0000 </r>
       <r>   -5.6336    1.0000 </r>
       <r>   -5.5654    1.0000 </r>
       <r>   -5.5514    1.0000 </r>
       <r>   -5.4044    1.0000 </r>
       <r>   -5.2050    1.0000 </r>
       <r>   -5.1734    1.0000 </r>
       <r>   -5.1530    1.0000 </r>
       <r>   -5.0335    1.0000 </r>
       <r>   -4.9790    1.0000 </r>
       <r>   -4.9177    1.0000 </r>
       <r>   -4.6325    1.0000 </r>
       <r>   -4.6235    1.0000 </r>
       <r>   -4.5204    1.0000 </r>
       <r>   -4.4452    1.0000 </r>
       <r>   -4.4375    1.0000 </r>
       <r>   -4.3545    1.0000 </r>
       <r>   -4.2037    1.0000 </r>
       <r>   -4.1911    1.0000 </r>
       <r>   -4.1179    1.0000 </r>
       <r>   -4.0368    1.0000 </r>
       <r>   -3.8164    1.0000 </r>
       <r>   -3.8066    1.0000 </r>
       <r>   -3.7805    1.0000 </r>
       <r>   -3.6910    1.0000 </r>
       <r>   -3.5721    1.0000 </r>
       <r>   -3.5348    1.0000 </r>
       <r>   -3.5329    1.0000 </r>
       <r>   -3.3792    1.0000 </r>
       <r>   -3.3526    1.0000 </r>
       <r>   -3.2745    1.0000 </r>
       <r>   -3.2003    1.0000 </r>
       <r>   -3.1301    1.0000 </r>
       <r>   -2.9801    1.0000 </r>
       <r>   -2.9711    1.0000 </r>
       <r>   -2.9461    1.0000 </r>
       <r>   -2.9420    1.0000 </r>
       <r>   -2.8768    1.0000 </r>
       <r>   -2.8196    1.0000 </r>
       <r>   -2.8096    1.0000 </r>
       <r>   -2.6919    1.0000 </r>
       <r>   -2.6263    1.0000 </r>
       <r>   -2.6115    1.0000 </r>
       <r>   -2.6092    1.0000 </r>
       <r>   -2.5224    1.0000 </r>
       <r>   -2.4094    1.0000 </r>
       <r>   -2.3775    1.0000 </r>
       <r>   -2.2691    1.0000 </r>
       <r>   -2.2199    1.0000 </r>
       <r>   -2.1842    1.0000 </r>
       <r>   -2.1391    1.0000 </r>
       <r>   -2.0830    1.0000 </r>
       <r>   -1.8546    1.0000 </r>
       <r>   -1.7213    1.0000 </r>
       <r>   -1.7201    1.0000 </r>
       <r>   -1.6511    1.0000 </r>
       <r>   -1.5836    1.0000 </r>
       <r>   -1.5015    1.0000 </r>
       <r>   -1.4587    1.0000 </r>
       <r>   -1.4361    1.0000 </r>
       <r>   -1.3770    1.0000 </r>
       <r>   -1.2941    1.0000 </r>
       <r>   -1.2867    1.0000 </r>
       <r>   -1.2348    1.0000 </r>
       <r>   -1.1684    1.0000 </r>
       <r>   -1.1498    1.0000 </r>
       <r>   -0.9949    1.0000 </r>
       <r>   -0.8529    1.0000 </r>
       <r>   -0.7027    1.0007 </r>
       <r>   -0.5919    1.0064 </r>
       <r>   -0.5618    1.0103 </r>
       <r>   -0.4131    1.0350 </r>
       <r>   -0.2324    0.7197 </r>
       <r>   -0.2300    0.7106 </r>
       <r>   -0.2198    0.6711 </r>
       <r>   -0.1294    0.2996 </r>
       <r>    0.0312   -0.0294 </r>
       <r>    0.0776   -0.0350 </r>
       <r>    0.2430   -0.0056 </r>
       <r>    0.9893   -0.0000 </r>
       <r>    1.6216   -0.0000 </r>
       <r>    1.6619   -0.0000 </r>
       <r>    1.8864   -0.0000 </r>
       <r>    1.9074   -0.0000 </r>
       <r>    2.3334   -0.0000 </r>
       <r>    2.7393   -0.0000 </r>
       <r>    2.8626   -0.0000 </r>
       <r>    3.3081   -0.0000 </r>
       <r>    3.9986   -0.0000 </r>
       <r>    4.3121   -0.0000 </r>
       <r>    4.7196   -0.0000 </r>
       <r>    5.4214    0.0000 </r>
       <r>    5.9215    0.0000 </r>
      </set>
      <set comment="kpoint 12">
       <r>  -22.3866    1.0000 </r>
       <r>  -10.5040    1.0000 </r>
       <r>   -7.2675    1.0000 </r>
       <r>   -7.2092    1.0000 </r>
       <r>   -6.7356    1.0000 </r>
       <r>   -6.6166    1.0000 </r>
       <r>   -6.3924    1.0000 </r>
       <r>   -6.1822    1.0000 </r>
       <r>   -6.0965    1.0000 </r>
       <r>   -5.9328    1.0000 </r>
       <r>   -5.5892    1.0000 </r>
       <r>   -5.4031    1.0000 </r>
       <r>   -5.3194    1.0000 </r>
       <r>   -5.2736    1.0000 </r>
       <r>   -5.2253    1.0000 </r>
       <r>   -5.1526    1.0000 </r>
       <r>   -5.0434    1.0000 </r>
       <r>   -4.9792    1.0000 </r>
       <r>   -4.9318    1.0000 </r>
       <r>   -4.7795    1.0000 </r>
       <r>   -4.7629    1.0000 </r>
       <r>   -4.7494    1.0000 </r>
       <r>   -4.7107    1.0000 </r>
       <r>   -4.6145    1.0000 </r>
       <r>   -4.5715    1.0000 </r>
       <r>   -4.4066    1.0000 </r>
       <r>   -4.3913    1.0000 </r>
       <r>   -4.3795    1.0000 </r>
       <r>   -4.3436    1.0000 </r>
       <r>   -4.3003    1.0000 </r>
       <r>   -4.2570    1.0000 </r>
       <r>   -4.2143    1.0000 </r>
       <r>   -4.1747    1.0000 </r>
       <r>   -3.9671    1.0000 </r>
       <r>   -3.8180    1.0000 </r>
       <r>   -3.7616    1.0000 </r>
       <r>   -3.7388    1.0000 </r>
       <r>   -3.7127    1.0000 </r>
       <r>   -3.6114    1.0000 </r>
       <r>   -3.5811    1.0000 </r>
       <r>   -3.5583    1.0000 </r>
       <r>   -3.5182    1.0000 </r>
       <r>   -3.4986    1.0000 </r>
       <r>   -3.4189    1.0000 </r>
       <r>   -3.3403    1.0000 </r>
       <r>   -3.1899    1.0000 </r>
       <r>   -3.1542    1.0000 </r>
       <r>   -3.0591    1.0000 </r>
       <r>   -2.9702    1.0000 </r>
       <r>   -2.9331    1.0000 </r>
       <r>   -2.8819    1.0000 </r>
       <r>   -2.8226    1.0000 </r>
       <r>   -2.8041    1.0000 </r>
       <r>   -2.7922    1.0000 </r>
       <r>   -2.6166    1.0000 </r>
       <r>   -2.5442    1.0000 </r>
       <r>   -2.3451    1.0000 </r>
       <r>   -2.2711    1.0000 </r>
       <r>   -2.2120    1.0000 </r>
       <r>   -2.1851    1.0000 </r>
       <r>   -2.1510    1.0000 </r>
       <r>   -2.0902    1.0000 </r>
       <r>   -1.9638    1.0000 </r>
       <r>   -1.8658    1.0000 </r>
       <r>   -1.8301    1.0000 </r>
       <r>   -1.7828    1.0000 </r>
       <r>   -1.6668    1.0000 </r>
       <r>   -1.6273    1.0000 </r>
       <r>   -1.4887    1.0000 </r>
       <r>   -1.4871    1.0000 </r>
       <r>   -1.3744    1.0000 </r>
       <r>   -1.3298    1.0000 </r>
       <r>   -1.2800    1.0000 </r>
       <r>   -1.2528    1.0000 </r>
       <r>   -1.1682    1.0000 </r>
       <r>   -1.0554    1.0000 </r>
       <r>   -1.0239    1.0000 </r>
       <r>   -0.9062    1.0000 </r>
       <r>   -0.8741    1.0000 </r>
       <r>   -0.8009    1.0000 </r>
       <r>   -0.7063    1.0006 </r>
       <r>   -0.5508    1.0122 </r>
       <r>   -0.4956    1.0237 </r>
       <r>   -0.4402    1.0345 </r>
       <r>   -0.4175    1.0353 </r>
       <r>   -0.3702    1.0204 </r>
       <r>   -0.2286    0.7053 </r>
       <r>   -0.2070    0.6197 </r>
       <r>    0.0131   -0.0201 </r>
       <r>    0.2045   -0.0104 </r>
       <r>    0.2560   -0.0044 </r>
       <r>    0.2875   -0.0024 </r>
       <r>    1.0992   -0.0000 </r>
       <r>    1.6688   -0.0000 </r>
       <r>    2.0367   -0.0000 </r>
       <r>    2.8388   -0.0000 </r>
       <r>    3.1440   -0.0000 </r>
       <r>    3.5210   -0.0000 </r>
       <r>    3.6976   -0.0000 </r>
       <r>    4.3669   -0.0000 </r>
       <r>    4.7020   -0.0000 </r>
       <r>    5.0521   -0.0000 </r>
       <r>    5.3186    0.0000 </r>
       <r>    5.4888    0.0000 </r>
      </set>
      <set comment="kpoint 13">
       <r>  -22.3866    1.0000 </r>
       <r>  -10.5040    1.0000 </r>
       <r>   -7.2677    1.0000 </r>
       <r>   -7.2090    1.0000 </r>
       <r>   -6.7356    1.0000 </r>
       <r>   -6.6166    1.0000 </r>
       <r>   -6.3925    1.0000 </r>
       <r>   -6.1823    1.0000 </r>
       <r>   -6.0964    1.0000 </r>
       <r>   -5.9329    1.0000 </r>
       <r>   -5.5891    1.0000 </r>
       <r>   -5.4029    1.0000 </r>
       <r>   -5.3196    1.0000 </r>
       <r>   -5.2737    1.0000 </r>
       <r>   -5.2252    1.0000 </r>
       <r>   -5.1527    1.0000 </r>
       <r>   -5.0435    1.0000 </r>
       <r>   -4.9791    1.0000 </r>
       <r>   -4.9317    1.0000 </r>
       <r>   -4.7795    1.0000 </r>
       <r>   -4.7629    1.0000 </r>
       <r>   -4.7495    1.0000 </r>
       <r>   -4.7107    1.0000 </r>
       <r>   -4.6145    1.0000 </r>
       <r>   -4.5715    1.0000 </r>
       <r>   -4.4067    1.0000 </r>
       <r>   -4.3913    1.0000 </r>
       <r>   -4.3796    1.0000 </r>
       <r>   -4.3436    1.0000 </r>
       <r>   -4.3003    1.0000 </r>
       <r>   -4.2568    1.0000 </r>
       <r>   -4.2143    1.0000 </r>
       <r>   -4.1748    1.0000 </r>
       <r>   -3.9671    1.0000 </r>
       <r>   -3.8180    1.0000 </r>
       <r>   -3.7617    1.0000 </r>
       <r>   -3.7388    1.0000 </r>
       <r>   -3.7127    1.0000 </r>
       <r>   -3.6114    1.0000 </r>
       <r>   -3.5811    1.0000 </r>
       <r>   -3.5584    1.0000 </r>
       <r>   -3.5182    1.0000 </r>
       <r>   -3.4985    1.0000 </r>
       <r>   -3.4189    1.0000 </r>
       <r>   -3.3404    1.0000 </r>
       <r>   -3.1900    1.0000 </r>
       <r>   -3.1541    1.0000 </r>
       <r>   -3.0590    1.0000 </r>
       <r>   -2.9702    1.0000 </r>
       <r>   -2.9333    1.0000 </r>
       <r>   -2.8818    1.0000 </r>
       <r>   -2.8225    1.0000 </r>
       <r>   -2.8042    1.0000 </r>
       <r>   -2.7923    1.0000 </r>
       <r>   -2.6165    1.0000 </r>
       <r>   -2.5443    1.0000 </r>
       <r>   -2.3449    1.0000 </r>
       <r>   -2.2713    1.0000 </r>
       <r>   -2.2121    1.0000 </r>
[...]
        <r>  0.0002  0.0006  0.0001 </r>
        <r>  0.0000  0.0032  0.0000 </r>
       </set>
       <set comment="band 83">
        <r>  0.0003  0.0006  0.0251 </r>
        <r>  0.0003  0.0006  0.0252 </r>
        <r>  0.0014  0.0008  0.0541 </r>
        <r>  0.0000  0.0004  0.0343 </r>
        <r>  0.0000  0.0002  0.0522 </r>
        <r>  0.0002  0.0003  0.0653 </r>
        <r>  0.0000  0.0003  0.0305 </r>
        <r>  0.0000  0.0003  0.0307 </r>
        <r>  0.0002  0.0001  0.0374 </r>
        <r>  0.0002  0.0001  0.0373 </r>
        <r>  0.0015  0.0011  0.1078 </r>
        <r>  0.0000  0.0002  0.0698 </r>
        <r>  0.0003  0.0016  0.0256 </r>
        <r>  0.0003  0.0016  0.0256 </r>
        <r>  0.0014  0.0038  0.1321 </r>
        <r>  0.0001  0.0032  0.1469 </r>
        <r>  0.0001  0.0039  0.0008 </r>
        <r>  0.0000  0.0161  0.0000 </r>
       </set>
       <set comment="band 84">
        <r>  0.0006  0.0009  0.0347 </r>
        <r>  0.0006  0.0009  0.0346 </r>
        <r>  0.0000  0.0003  0.1083 </r>
        <r>  0.0004  0.0011  0.0763 </r>
        <r>  0.0000  0.0001  0.0179 </r>
        <r>  0.0001  0.0001  0.0398 </r>
        <r>  0.0000  0.0001  0.1172 </r>
        <r>  0.0000  0.0001  0.1171 </r>
        <r>  0.0001  0.0002  0.0596 </r>
        <r>  0.0001  0.0002  0.0597 </r>
        <r>  0.0001  0.0002  0.0620 </r>
        <r>  0.0005  0.0007  0.1014 </r>
        <r>  0.0008  0.0002  0.0325 </r>
        <r>  0.0008  0.0002  0.0324 </r>
        <r>  0.0008  0.0007  0.0286 </r>
        <r>  0.0002  0.0010  0.0117 </r>
        <r>  0.0001  0.0006  0.0001 </r>
        <r>  0.0000  0.0017  0.0000 </r>
       </set>
       <set comment="band 85">
        <r>  0.0007  0.0009  0.0954 </r>
        <r>  0.0007  0.0009  0.0955 </r>
        <r>  0.0007  0.0017  0.0344 </r>
        <r>  0.0007  0.0008  0.0471 </r>
        <r>  0.0000  0.0003  0.0087 </r>
        <r>  0.0000  0.0002  0.1293 </r>
        <r>  0.0000  0.0001  0.0667 </r>
        <r>  0.0000  0.0001  0.0664 </r>
        <r>  0.0006  0.0004  0.0978 </r>
        <r>  0.0006  0.0004  0.0978 </r>
        <r>  0.0002  0.0002  0.0544 </r>
        <r>  0.0000  0.0002  0.0463 </r>
        <r>  0.0007  0.0005  0.0293 </r>
        <r>  0.0007  0.0005  0.0294 </r>
        <r>  0.0000  0.0009  0.0283 </r>
        <r>  0.0001  0.0005  0.0047 </r>
        <r>  0.0000  0.0003  0.0001 </r>
        <r>  0.0000  0.0015  0.0000 </r>
       </set>
       <set comment="band 86">
        <r>  0.0003  0.0007  0.0667 </r>
        <r>  0.0003  0.0007  0.0667 </r>
        <r>  0.0008  0.0006  0.0223 </r>
        <r>  0.0014  0.0011  0.0554 </r>
        <r>  0.0004  0.0005  0.1484 </r>
        <r>  0.0000  0.0006  0.0503 </r>
        <r>  0.0000  0.0001  0.0421 </r>
        <r>  0.0000  0.0001  0.0421 </r>
        <r>  0.0002  0.0003  0.1132 </r>
        <r>  0.0002  0.0003  0.1132 </r>
        <r>  0.0000  0.0003  0.0376 </r>
        <r>  0.0000  0.0003  0.0085 </r>
        <r>  0.0005  0.0018  0.0186 </r>
        <r>  0.0005  0.0018  0.0186 </r>
        <r>  0.0009  0.0005  0.0244 </r>
        <r>  0.0007  0.0006  0.0964 </r>
        <r>  0.0003  0.0008  0.0002 </r>
        <r>  0.0000  0.0041  0.0000 </r>
       </set>
       <set comment="band 87">
        <r>  0.0002  0.0001  0.0153 </r>
        <r>  0.0002  0.0001  0.0153 </r>
        <r>  0.0001  0.0006  0.0798 </r>
        <r>  0.0012  0.0013  0.0951 </r>
        <r>  0.0002  0.0011  0.1966 </r>
        <r>  0.0003  0.0008  0.2194 </r>
        <r>  0.0000  0.0001  0.0215 </r>
        <r>  0.0000  0.0001  0.0215 </r>
        <r>  0.0000  0.0001  0.0133 </r>
        <r>  0.0000  0.0001  0.0133 </r>
        <r>  0.0006  0.0009  0.1006 </r>
        <r>  0.0004  0.0002  0.0901 </r>
        <r>  0.0008  0.0007  0.0050 </r>
        <r>  0.0008  0.0007  0.0050 </r>
        <r>  0.0003  0.0013  0.0148 </r>
        <r>  0.0000  0.0004  0.0225 </r>
        <r>  0.0000  0.0020  0.0004 </r>
        <r>  0.0000  0.0082  0.0000 </r>
       </set>
       <set comment="band 88">
        <r>  0.0005  0.0009  0.0796 </r>
        <r>  0.0005  0.0009  0.0796 </r>
        <r>  0.0000  0.0000  0.0122 </r>
        <r>  0.0000  0.0001  0.0098 </r>
        <r>  0.0000  0.0000  0.0133 </r>
        <r>  0.0000  0.0000  0.0193 </r>
        <r>  0.0002  0.0010  0.2032 </r>
        <r>  0.0002  0.0010  0.2032 </r>
        <r>  0.0000  0.0008  0.1234 </r>
        <r>  0.0000  0.0008  0.1234 </r>
        <r>  0.0000  0.0001  0.0091 </r>
        <r>  0.0001  0.0001  0.0149 </r>
        <r>  0.0000  0.0003  0.0278 </r>
        <r>  0.0000  0.0003  0.0277 </r>
        <r>  0.0000  0.0001  0.0037 </r>
        <r>  0.0000  0.0000  0.0030 </r>
        <r>  0.0000  0.0001  0.0000 </r>
        <r>  0.0000  0.0000  0.0000 </r>
       </set>
       <set comment="band 89">
        <r>  0.0064  0.0030  0.0293 </r>
        <r>  0.0064  0.0030  0.0293 </r>
        <r>  0.0005  0.0036  0.0360 </r>
        <r>  0.0050  0.0019  0.0398 </r>
        <r>  0.0014  0.0006  0.0211 </r>
        <r>  0.0004  0.0025  0.0188 </r>
        <r>  0.0001  0.0006  0.0353 </r>
        <r>  0.0001  0.0006  0.0352 </r>
        <r>  0.0032  0.0021  0.0635 </r>
        <r>  0.0032  0.0021  0.0636 </r>
        <r>  0.0088  0.0023  0.0499 </r>
        <r>  0.0000  0.0036  0.0977 </r>
        <r>  0.0057  0.0068  0.0683 </r>
        <r>  0.0057  0.0068  0.0683 </r>
        <r>  0.0014  0.0029  0.0685 </r>
        <r>  0.0027  0.0039  0.0739 </r>
        <r>  0.0036  0.0056  0.0005 </r>
        <r>  0.0002  0.0087  0.0000 </r>
       </set>
       <set comment="band 90">
        <r>  0.0010  0.0020  0.0203 </r>
        <r>  0.0010  0.0020  0.0204 </r>
        <r>  0.0097  0.0037  0.0383 </r>
        <r>  0.0084  0.0010  0.0186 </r>
        <r>  0.0057  0.0035  0.0544 </r>
        <r>  0.0000  0.0021  0.0697 </r>
        <r>  0.0028  0.0026  0.0372 </r>
        <r>  0.0028  0.0026  0.0372 </r>
        <r>  0.0096  0.0044  0.0723 </r>
        <r>  0.0096  0.0044  0.0723 </r>
        <r>  0.0050  0.0055  0.0614 </r>
        <r>  0.0040  0.0056  0.0792 </r>
        <r>  0.0048  0.0033  0.0478 </r>
        <r>  0.0048  0.0033  0.0478 </r>
        <r>  0.0015  0.0075  0.0538 </r>
        <r>  0.0113  0.0027  0.0231 </r>
        <r>  0.0005  0.0018  0.0004 </r>
        <r>  0.0002  0.0056  0.0000 </r>
       </set>
       <set comment="band 91">
        <r>  0.0039  0.0058  0.0810 </r>
        <r>  0.0039  0.0058  0.0809 </r>
        <r>  0.0190  0.0033  0.0535 </r>
        <r>  0.0004  0.0087  0.1055 </r>
        <r>  0.0038  0.0056  0.0863 </r>
        <r>  0.0091  0.0048  0.0710 </r>
        <r>  0.0077  0.0057  0.0559 </r>
        <r>  0.0077  0.0057  0.0558 </r>
        <r>  0.0032  0.0020  0.0238 </r>
        <r>  0.0031  0.0020  0.0239 </r>
        <r>  0.0000  0.0013  0.0311 </r>
        <r>  0.0038  0.0027  0.0292 </r>
        <r>  0.0011  0.0015  0.0089 </r>
        <r>  0.0011  0.0015  0.0089 </r>
        <r>  0.0043  0.0022  0.0032 </r>
        <r>  0.0070  0.0039  0.0330 </r>
        <r>  0.0000  0.0017  0.0003 </r>
        <r>  0.0000  0.0081  0.0000 </r>
       </set>
       <set comment="band 92">
        <r>  0.0123  0.0055  0.0531 </r>
        <r>  0.0123  0.0055  0.0531 </r>
        <r>  0.0000  0.0065  0.0577 </r>
        <r>  0.0094  0.0034  0.0302 </r>
        <r>  0.0000  0.0034  0.0294 </r>
        <r>  0.0033  0.0012  0.0211 </r>
        <r>  0.0032  0.0029  0.0479 </r>
        <r>  0.0032  0.0029  0.0478 </r>
        <r>  0.0006  0.0024  0.0351 </r>
        <r>  0.0006  0.0024  0.0351 </r>
        <r>  0.0052  0.0028  0.0130 </r>
        <r>  0.0072  0.0005  0.0598 </r>
        <r>  0.0121  0.0047  0.0337 </r>
        <r>  0.0121  0.0047  0.0337 </r>
        <r>  0.0169  0.0048  0.0457 </r>
        <r>  0.0005  0.0065  0.1044 </r>
        <r>  0.0000  0.0019  0.0003 </r>
        <r>  0.0000  0.0141  0.0000 </r>
       </set>
       <set comment="band 93">
        <r>  0.0161  0.0104  0.0355 </r>
        <r>  0.0161  0.0104  0.0355 </r>
        <r>  0.0101  0.0097  0.0386 </r>
        <r>  0.0229  0.0114  0.0319 </r>
        <r>  0.0001  0.0039  0.0345 </r>
        <r>  0.0044  0.0052  0.0265 </r>
        <r>  0.0020  0.0049  0.0287 </r>
        <r>  0.0020  0.0049  0.0286 </r>
        <r>  0.0069  0.0072  0.0296 </r>
        <r>  0.0069  0.0072  0.0296 </r>
        <r>  0.0101  0.0076  0.0341 </r>
        <r>  0.0091  0.0063  0.0235 </r>
        <r>  0.0153  0.0084  0.0331 </r>
        <r>  0.0153  0.0084  0.0331 </r>
        <r>  0.0029  0.0073  0.0388 </r>
        <r>  0.0077  0.0051  0.0381 </r>
        <r>  0.0031  0.0115  0.0008 </r>
        <r>  0.0002  0.0242  0.0001 </r>
       </set>
       <set comment="band 94">
        <r>  0.0154  0.0110  0.0145 </r>
        <r>  0.0154  0.0110  0.0145 </r>
        <r>  0.0002  0.0017  0.0325 </r>
        <r>  0.0000  0.0018  0.0318 </r>
        <r>  0.0171  0.0025  0.0203 </r>
        <r>  0.0185  0.0023  0.0244 </r>
        <r>  0.0116  0.0040  0.0152 </r>
        <r>  0.0116  0.0040  0.0152 </r>
        <r>  0.0011  0.0025  0.0309 </r>
        <r>  0.0011  0.0025  0.0309 </r>
        <r>  0.0271  0.0158  0.0192 </r>
        <r>  0.0051  0.0063  0.0352 </r>
        <r>  0.0038  0.0215  0.0358 </r>
        <r>  0.0038  0.0215  0.0358 </r>
        <r>  0.0086  0.0073  0.0274 </r>
        <r>  0.0000  0.0032  0.0349 </r>
        <r>  0.0060  0.0440  0.0021 </r>
        <r>  0.0003  0.0573  0.0006 </r>
       </set>
       <set comment="band 95">
        <r>  0.0011  0.0021  0.0392 </r>
        <r>  0.0011  0.0021  0.0392 </r>
        <r>  0.0224  0.0194  0.0124 </r>
        <r>  0.0085  0.0123  0.0172 </r>
        <r>  0.0214  0.0039  0.0172 </r>
        <r>  0.0062  0.0055  0.0119 </r>
        <r>  0.0218  0.0039  0.0273 </r>
        <r>  0.0218  0.0039  0.0273 </r>
        <r>  0.0203  0.0079  0.0277 </r>
        <r>  0.0203  0.0079  0.0277 </r>
        <r>  0.0032  0.0069  0.0269 </r>
        <r>  0.0015  0.0031  0.0233 </r>
        <r>  0.0055  0.0007  0.0480 </r>
        <r>  0.0055  0.0007  0.0480 </r>
        <r>  0.0052  0.0269  0.0429 </r>
        <r>  0.0001  0.0136  0.0211 </r>
        <r>  0.0057  0.0171  0.0009 </r>
        <r>  0.0005  0.0232  0.0002 </r>
       </set>
       <set comment="band 96">
        <r>  0.0065  0.0089  0.0137 </r>
        <r>  0.0065  0.0089  0.0137 </r>
        <r>  0.0073  0.0030  0.0211 </r>
        <r>  0.0123  0.0093  0.0157 </r>
        <r>  0.0166  0.0086  0.0148 </r>
        <r>  0.0050  0.0099  0.0129 </r>
        <r>  0.0188  0.0052  0.0151 </r>
        <r>  0.0188  0.0052  0.0151 </r>
        <r>  0.0004  0.0068  0.0205 </r>
        <r>  0.0004  0.0068  0.0205 </r>
        <r>  0.0065  0.0083  0.0238 </r>
        <r>  0.0336  0.0059  0.0149 </r>
        <r>  0.0161  0.0171  0.0461 </r>
        <r>  0.0161  0.0171  0.0461 </r>
        <r>  0.0132  0.0040  0.0277 </r>
        <r>  0.0088  0.0037  0.0232 </r>
        <r>  0.0014  0.0607  0.0013 </r>
        <r>  0.0002  0.0511  0.0010 </r>
       </set>
       <set comment="band 97">
        <r>  0.0077  0.0041  0.0159 </r>
        <r>  0.0076  0.0041  0.0159 </r>
        <r>  0.0004  0.0020  0.0069 </r>
        <r>  0.0018  0.0117  0.0084 </r>
        <r>  0.0053  0.0038  0.0161 </r>
        <r>  0.0449  0.0020  0.0162 </r>
        <r>  0.0009  0.0084  0.0150 </r>
        <r>  0.0009  0.0084  0.0149 </r>
        <r>  0.0308  0.0025  0.0264 </r>
        <r>  0.0308  0.0025  0.0264 </r>
        <r>  0.0000  0.0108  0.0178 </r>
        <r>  0.0008  0.0132  0.0125 </r>
        <r>  0.0243  0.0094  0.0368 </r>
        <r>  0.0243  0.0094  0.0368 </r>
        <r>  0.0050  0.0045  0.0745 </r>
        <r>  0.0628  0.0160  0.0227 </r>
        <r>  0.0116  0.0248  0.0005 </r>
        <r>  0.0001  0.0105  0.0003 </r>
       </set>
       <set comment="band 98">
        <r>  0.0035  0.0078  0.0076 </r>
        <r>  0.0035  0.0078  0.0076 </r>
        <r>  0.0002  0.0080  0.0150 </r>
        <r>  0.0020  0.0033  0.0153 </r>
        <r>  0.0015  0.0021  0.0264 </r>
        <r>  0.0149  0.0040  0.0074 </r>
        <r>  0.0078  0.0090  0.0119 </r>
        <r>  0.0077  0.0090  0.0119 </r>
        <r>  0.0108  0.0027  0.0108 </r>
        <r>  0.0108  0.0027  0.0108 </r>
        <r>  0.0000  0.0066  0.0358 </r>
        <r>  0.0446  0.0050  0.0080 </r>
        <r>  0.0099  0.0105  0.0269 </r>
        <r>  0.0099  0.0105  0.0269 </r>
        <r>  0.0115  0.0221  0.0359 </r>
        <r>  0.0511  0.0086  0.0027 </r>
        <r>  0.0006  0.1042  0.0011 </r>
        <r>  0.0000  0.0536  0.0020 </r>
       </set>
       <set comment="band 99">
        <r>  0.0141  0.0164  0.0209 </r>
        <r>  0.0141  0.0164  0.0209 </r>
        <r>  0.0194  0.0045  0.0363 </r>
        <r>  0.0222  0.0059  0.0327 </r>
        <r>  0.0315  0.0213  0.0203 </r>
        <r>  0.0051  0.0177  0.0429 </r>
        <r>  0.0301  0.0110  0.0371 </r>
        <r>  0.0301  0.0110  0.0371 </r>
        <r>  0.0046  0.0111  0.0141 </r>
        <r>  0.0046  0.0111  0.0141 </r>
        <r>  0.0239  0.0134  0.0227 </r>
        <r>  0.0008  0.0026  0.0183 </r>
        <r>  0.0057  0.0077  0.0182 </r>
        <r>  0.0057  0.0077  0.0182 </r>
        <r>  0.0024  0.0042  0.0076 </r>
        <r>  0.0000  0.0032  0.0027 </r>
        <r>  0.0064  0.0258  0.0004 </r>
        <r>  0.0001  0.0126  0.0004 </r>
       </set>
       <set comment="band 100">
        <r>  0.0002  0.0117  0.0155 </r>
        <r>  0.0002  0.0117  0.0155 </r>
        <r>  0.0045  0.0223  0.0076 </r>
        <r>  0.0019  0.0011  0.0144 </r>
        <r>  0.0011  0.0257  0.0101 </r>
        <r>  0.0001  0.0070  0.0178 </r>
        <r>  0.0151  0.0052  0.0168 </r>
        <r>  0.0151  0.0052  0.0168 </r>
        <r>  0.0290  0.0164  0.0091 </r>
        <r>  0.0290  0.0164  0.0091 </r>
        <r>  0.0003  0.0021  0.0249 </r>
        <r>  0.0002  0.0078  0.0224 </r>
        <r>  0.0062  0.0151  0.0245 </r>
        <r>  0.0062  0.0151  0.0245 </r>
        <r>  0.0435  0.0128  0.0376 </r>
        <r>  0.0054  0.0174  0.0161 </r>
        <r>  0.0196  0.0326  0.0010 </r>
        <r>  0.0012  0.0123  0.0005 </r>
       </set>
       <set comment="band 101">
        <r>  0.0364  0.0124  0.0222 </r>
        <r>  0.0364  0.0124  0.0222 </r>
        <r>  0.0306  0.0138  0.0168 </r>
        <r>  0.0254  0.0091  0.0307 </r>
        <r>  0.0006  0.0030  0.0113 </r>
        <r>  0.0026  0.0138  0.0093 </r>
        <r>  0.0001  0.0105  0.0144 </r>
        <r>  0.0001  0.0104  0.0144 </r>
        <r>  0.0095  0.0120  0.0182 </r>
        <r>  0.0095  0.0120  0.0182 </r>
        <r>  0.0316  0.0120  0.0156 </r>
        <r>  0.0244  0.0144  0.0210 </r>
        <r>  0.0009  0.0141  0.0187 </r>
        <r>  0.0009  0.0141  0.0187 </r>
        <r>  0.0004  0.0134  0.0110 </r>
        <r>  0.0008  0.0216  0.0128 </r>
        <r>  0.0001  0.0246  0.0001 </r>
        <r>  0.0001  0.0108  0.0006 </r>
       </set>
       <set comment="band 102">
        <r>  0.0105  0.0029  0.0145 </r>
        <r>  0.0105  0.0029  0.0145 </r>
        <r>  0.0031  0.0148  0.0128 </r>
        <r>  0.0116  0.0267  0.0033 </r>
        <r>  0.0026  0.0013  0.0100 </r>
        <r>  0.0115  0.0145  0.0209 </r>
        <r>  0.0152  0.0189  0.0080 </r>
        <r>  0.0152  0.0189  0.0080 </r>
        <r>  0.0143  0.0227  0.0108 </r>
        <r>  0.0143  0.0227  0.0108 </r>
        <r>  0.0033  0.0078  0.0294 </r>
        <r>  0.0023  0.0185  0.0087 </r>
        <r>  0.0073  0.0071  0.0172 </r>
        <r>  0.0073  0.0071  0.0172 </r>
        <r>  0.0000  0.0216  0.0139 </r>
        <r>  0.0016  0.0211  0.0091 </r>
        <r>  0.0016  0.0177  0.0001 </r>
        <r>  0.0000  0.0043  0.0004 </r>
       </set>
       <set comment="band 103">
        <r>  0.0082  0.0143  0.0170 </r>
        <r>  0.0082  0.0143  0.0170 </r>
        <r>  0.0132  0.0128  0.0186 </r>
        <r>  0.0081  0.0124  0.0115 </r>
        <r>  0.0588  0.0146  0.0116 </r>
        <r>  0.0618  0.0114  0.0037 </r>
        <r>  0.0478  0.0111  0.0113 </r>
        <r>  0.0478  0.0111  0.0113 </r>
        <r>  0.0085  0.0079  0.0139 </r>
        <r>  0.0085  0.0079  0.0139 </r>
        <r>  0.0234  0.0060  0.0179 </r>
        <r>  0.0139  0.0158  0.0120 </r>
        <r>  0.0045  0.0115  0.0091 </r>
        <r>  0.0045  0.0115  0.0091 </r>
        <r>  0.0035  0.0023  0.0125 </r>
        <r>  0.0042  0.0007  0.0030 </r>
        <r>  0.0000  0.0216  0.0002 </r>
        <r>  0.0002  0.0062  0.0006 </r>
       </set>
       <set comment="band 104">
        <r>  0.0368  0.0077  0.0100 </r>
        <r>  0.0374  0.0075  0.0097 </r>
        <r>  0.0407  0.0028  0.0066 </r>
        <r>  0.0414  0.0043  0.0071 </r>
        <r>  0.0159  0.0084  0.0271 </r>
        <r>  0.0036  0.0140  0.0175 </r>
        <r>  0.0043  0.0117  0.0119 </r>
        <r>  0.0042  0.0112  0.0117 </r>
        <r>  0.0230  0.0098  0.0061 </r>
        <r>  0.0219  0.0102  0.0068 </r>
        <r>  0.0146  0.0015  0.0054 </r>
        <r>  0.0018  0.0068  0.0184 </r>
        <r>  0.0115  0.0154  0.0247 </r>
        <r>  0.0104  0.0158  0.0251 </r>
        <r>  0.0023  0.0107  0.0112 </r>
        <r>  0.0005  0.0112  0.0116 </r>
        <r>  0.0088  0.0194  0.0001 </r>
        <r>  0.0002  0.0050  0.0004 </r>
       </set>
      </set>
     </set>
    </set>
   </array>
  </projected>
 </calculation>
 <structure name="finalpos" >
  <crystal>
   <varray name="basis" >
    <v>       5.64384424       0.00000000       0.00000000 </v>
    <v>       2.82192212       4.88771248       0.00000000 </v>
    <v>       0.00000000       0.00000000      26.91226928 </v>
   </varray>
   <i name="volume">    742.38807929 </i>
   <varray name="rec_basis" >
    <v>       0.17718420      -0.10229734       0.00000000 </v>
    <v>       0.00000000       0.20459469       0.00000000 </v>
    <v>       0.00000000       0.00000000       0.03715777 </v>
   </varray>
  </crystal>
  <varray name="positions" >
   <v>       0.00000000       0.00000000       0.37157773 </v>
   <v>       0.50000000       0.00000000       0.37157773 </v>
   <v>       0.00000000       0.50000000       0.37157773 </v>
   <v>       0.50000000       0.50000000       0.37157773 </v>
   <v>       0.16666667       0.16666667       0.45719258 </v>
   <v>       0.66666667       0.16666667       0.45719258 </v>
   <v>       0.16666667       0.66666667       0.45719258 </v>
   <v>       0.66666667       0.66666667       0.45719258 </v>
   <v>       0.83510680       0.33244268       0.54239142 </v>
   <v>       0.33244078       0.33244030       0.54239050 </v>
   <v>       0.83333274       0.83333145       0.54479985 </v>
   <v>       0.33244169       0.83510930       0.54239216 </v>
   <v>       0.99809105       0.99807997       0.63285309 </v>
   <v>       0.50384637       0.99807599       0.63284932 </v>
   <v>       0.99808606       0.50383728       0.63284713 </v>
   <v>       0.50000028       0.49999648       0.62647687 </v>
   <v>       0.16668159       0.16668135       0.68250734 </v>
   <v>       0.16670316       0.16670136       0.72709028 </v>
  </varray>
  <varray name="selective"  type="logical" >
   <v type="logical" >  F  F  F </v>
   <v type="logical" >  F  F  F </v>
   <v type="logical" >  F  F  F </v>
   <v type="logical" >  F  F  F </v>
   <v type="logical" >  F  F  F </v>
   <v type="logical" >  F  F  F </v>
   <v type="logical" >  F  F  F </v>
   <v type="logical" >  F  F  F </v>
   <v type="logical" >  T  T  T </v>
   <v type="logical" >  T  T  T </v>
   <v type="logical" >  T  T  T </v>
   <v type="logical" >  T  T  T </v>
   <v type="logical" >  T  T  T </v>
   <v type="logical" >  T  T  T </v>
   <v type="logical" >  T  T  T </v>
   <v type="logical" >  T  T  T </v>
   <v type="logical" >  T  T  T </v>
   <v type="logical" >  T  T  T </v>
  </varray>
  <nose>
   <v>      -3.00000000       0.00000000       0.00010000       0.00010000 </v>
  </nose>
 </structure>
</modeling>
