unknown system                          
           1
     5.643844    0.000000    0.000000
     2.821922    4.887712    0.000000
     0.000000    0.000000   26.912269
   Pt   C    O 
  16   1   1
Direct configuration=     1
   0.00000000  0.00000000  0.37157773
   0.50000000  0.00000000  0.37157773
   0.00000000  0.50000000  0.37157773
   0.50000000  0.50000000  0.37157773
   0.16666667  0.16666667  0.45719258
   0.66666667  0.16666667  0.45719258
   0.16666667  0.66666667  0.45719258
   0.66666667  0.66666667  0.45719258
   0.83510680  0.33244268  0.54239142
   0.33244078  0.33244030  0.54239050
   0.83333274  0.83333145  0.54479985
   0.33244169  0.83510930  0.54239216
   0.99809105  0.99807997  0.63285309
   0.50384637  0.99807599  0.63284932
   0.99808606  0.50383728  0.63284713
   0.50000028  0.49999648  0.62647687
   0.16668159  0.16668135  0.68250734
   0.16670316  0.16670136  0.72709028
