  16  16   1   0
  0.4639925E+02  0.5643844E-09  0.5643844E-09  0.2691227E-08  0.5000000E-15
  1.000000000000000E-004
  CAR 
 unknown system                          
      7.26295091    -11.21885705  301     -0.15025215      1.00000000
    -11.219  0.0000E+00  0.0000E+00
    -11.157  0.0000E+00  0.0000E+00
    -11.096  0.0000E+00  0.0000E+00
    -11.034  0.0000E+00  0.0000E+00
    -10.972  0.0000E+00  0.0000E+00
    -10.911  0.0000E+00  0.0000E+00
    -10.849 -0.4124E-28 -0.2541E-29
    -10.788 -0.5434E-26 -0.3373E-27
    -10.726 -0.5949E-24 -0.3699E-25
    -10.664 -0.5376E-22 -0.3349E-23
    -10.603 -0.4010E-20 -0.2504E-21
    -10.541 -0.2468E-18 -0.1545E-19
    -10.480 -0.1253E-16 -0.7871E-18
    -10.418 -0.5242E-15 -0.3308E-16
    -10.356 -0.1751E-13 -0.1112E-14
    -10.295 -0.4964E-12 -0.3169E-13
    -10.233 -0.1156E-10 -0.7439E-12
    -10.172 -0.2213E-09 -0.1438E-10
    -10.110 -0.3479E-08 -0.2287E-09
    -10.048 -0.4481E-07 -0.2990E-08
     -9.987 -0.4723E-06 -0.3208E-07
     -9.925 -0.4060E-05 -0.2822E-06
     -9.864 -0.2837E-04 -0.2030E-05
     -9.802 -0.1603E-03 -0.1190E-04
     -9.740 -0.7257E-03 -0.5661E-04
     -9.679 -0.2599E-02 -0.2167E-03
     -9.617 -0.7174E-02 -0.6587E-03
     -9.555 -0.1445E-01 -0.1549E-02
     -9.494 -0.1786E-01 -0.2649E-02
     -9.432 -0.9335E-04 -0.2655E-02
     -9.371  0.5752E-01  0.8890E-03
     -9.309  0.1473E+00  0.9964E-02
     -9.247  0.2195E+00  0.2348E-01
     -9.186  0.2282E+00  0.3754E-01
     -9.124  0.2267E+00  0.5151E-01
     -9.063  0.3896E+00  0.7551E-01
     -9.001  0.8568E+00  0.1283E+00
     -8.939  0.1506E+01  0.2211E+00
     -8.878  0.1951E+01  0.3413E+00
     -8.816  0.1857E+01  0.4557E+00
     -8.755  0.1272E+01  0.5340E+00
     -8.693  0.5539E+00  0.5682E+00
     -8.631  0.3342E-01  0.5702E+00
     -8.570 -0.1952E+00  0.5582E+00
     -8.508 -0.1678E+00  0.5479E+00
     -8.447  0.1188E+00  0.5552E+00
     -8.385  0.6774E+00  0.5969E+00
     -8.323  0.1357E+01  0.6805E+00
     -8.262  0.1839E+01  0.7938E+00
     -8.200  0.1931E+01  0.9128E+00
     -8.139  0.1821E+01  0.1025E+01
     -8.077  0.1855E+01  0.1139E+01
     -8.015  0.2074E+01  0.1267E+01
     -7.954  0.2127E+01  0.1398E+01
     -7.892  0.1736E+01  0.1505E+01
     -7.831  0.1095E+01  0.1572E+01
     -7.769  0.7092E+00  0.1616E+01
     -7.707  0.8846E+00  0.1671E+01
     -7.646  0.1408E+01  0.1757E+01
     -7.584  0.1739E+01  0.1865E+01
     -7.522  0.1548E+01  0.1960E+01
     -7.461  0.1092E+01  0.2027E+01
     -7.399  0.1023E+01  0.2090E+01
     -7.338  0.1740E+01  0.2197E+01
     -7.276  0.2933E+01  0.2378E+01
     -7.214  0.3872E+01  0.2617E+01
     -7.153  0.4175E+01  0.2874E+01
     -7.091  0.4126E+01  0.3128E+01
     -7.030  0.4160E+01  0.3384E+01
     -6.968  0.4289E+01  0.3648E+01
     -6.906  0.4196E+01  0.3907E+01
     -6.845  0.3695E+01  0.4135E+01
     -6.783  0.2894E+01  0.4313E+01
     -6.722  0.2187E+01  0.4448E+01
     -6.660  0.2239E+01  0.4586E+01
     -6.598  0.3645E+01  0.4810E+01
     -6.537  0.6291E+01  0.5198E+01
     -6.475  0.9272E+01  0.5769E+01
     -6.414  0.1176E+02  0.6493E+01
     -6.352  0.1370E+02  0.7337E+01
     -6.290  0.1533E+02  0.8282E+01
     -6.229  0.1614E+02  0.9276E+01
     -6.167  0.1529E+02  0.1022E+02
     -6.106  0.1292E+02  0.1101E+02
     -6.044  0.1048E+02  0.1166E+02
     -5.982  0.9586E+01  0.1225E+02
     -5.921  0.1091E+02  0.1292E+02
     -5.859  0.1435E+02  0.1381E+02
     -5.798  0.1925E+02  0.1499E+02
     -5.736  0.2409E+02  0.1648E+02
     -5.674  0.2665E+02  0.1812E+02
     -5.613  0.2574E+02  0.1970E+02
     -5.551  0.2280E+02  0.2111E+02
     -5.489  0.2083E+02  0.2239E+02
     -5.428  0.2146E+02  0.2371E+02
     -5.366  0.2357E+02  0.2517E+02
     -5.305  0.2474E+02  0.2669E+02
     -5.243  0.2377E+02  0.2816E+02
     -5.181  0.2138E+02  0.2947E+02
     -5.120  0.1890E+02  0.3064E+02
     -5.058  0.1677E+02  0.3167E+02
     -4.997  0.1469E+02  0.3258E+02
     -4.935  0.1286E+02  0.3337E+02
     -4.873  0.1239E+02  0.3413E+02
     -4.812  0.1414E+02  0.3500E+02
     -4.750  0.1732E+02  0.3607E+02
     -4.689  0.2012E+02  0.3731E+02
     -4.627  0.2139E+02  0.3863E+02
     -4.565  0.2158E+02  0.3996E+02
     -4.504  0.2182E+02  0.4130E+02
     -4.442  0.2258E+02  0.4269E+02
     -4.381  0.2335E+02  0.4413E+02
     -4.319  0.2341E+02  0.4557E+02
     -4.257  0.2254E+02  0.4696E+02
     -4.196  0.2084E+02  0.4824E+02
     -4.134  0.1857E+02  0.4939E+02
     -4.073  0.1647E+02  0.5040E+02
     -4.011  0.1548E+02  0.5136E+02
     -3.949  0.1607E+02  0.5235E+02
     -3.888  0.1798E+02  0.5345E+02
     -3.826  0.2088E+02  0.5474E+02
     -3.765  0.2483E+02  0.5627E+02
     -3.703  0.2972E+02  0.5810E+02
     -3.641  0.3436E+02  0.6022E+02
     -3.580  0.3674E+02  0.6248E+02
     -3.518  0.3581E+02  0.6469E+02
     -3.456  0.3284E+02  0.6671E+02
     -3.395  0.3050E+02  0.6859E+02
     -3.333  0.3045E+02  0.7047E+02
     -3.272  0.3205E+02  0.7244E+02
     -3.210  0.3334E+02  0.7449E+02
     -3.148  0.3304E+02  0.7653E+02
     -3.087  0.3164E+02  0.7848E+02
     -3.025  0.3098E+02  0.8039E+02
     -2.964  0.3278E+02  0.8241E+02
     -2.902  0.3683E+02  0.8468E+02
     -2.840  0.4066E+02  0.8718E+02
     -2.779  0.4115E+02  0.8972E+02
     -2.717  0.3716E+02  0.9200E+02
     -2.656  0.3051E+02  0.9388E+02
     -2.594  0.2435E+02  0.9538E+02
     -2.532  0.2072E+02  0.9666E+02
     -2.471  0.1942E+02  0.9786E+02
     -2.409  0.1930E+02  0.9905E+02
     -2.348  0.1983E+02  0.1003E+03
     -2.286  0.2158E+02  0.1016E+03
     -2.224  0.2512E+02  0.1031E+03
     -2.163  0.2974E+02  0.1050E+03
     -2.101  0.3338E+02  0.1070E+03
     -2.040  0.3386E+02  0.1091E+03
     -1.978  0.3070E+02  0.1110E+03
     -1.916  0.2543E+02  0.1126E+03
     -1.855  0.2029E+02  0.1138E+03
     -1.793  0.1652E+02  0.1148E+03
     -1.732  0.1424E+02  0.1157E+03
     -1.670  0.1350E+02  0.1166E+03
     -1.608  0.1485E+02  0.1175E+03
     -1.547  0.1870E+02  0.1186E+03
     -1.485  0.2432E+02  0.1201E+03
     -1.423  0.3009E+02  0.1220E+03
     -1.362  0.3461E+02  0.1241E+03
     -1.300  0.3733E+02  0.1264E+03
     -1.239  0.3827E+02  0.1288E+03
     -1.177  0.3757E+02  0.1311E+03
     -1.115  0.3551E+02  0.1333E+03
     -1.054  0.3245E+02  0.1353E+03
     -0.992  0.2866E+02  0.1370E+03
     -0.931  0.2436E+02  0.1385E+03
     -0.869  0.2015E+02  0.1398E+03
     -0.807  0.1708E+02  0.1408E+03
     -0.746  0.1613E+02  0.1418E+03
     -0.684  0.1762E+02  0.1429E+03
     -0.623  0.2115E+02  0.1442E+03
     -0.561  0.2602E+02  0.1458E+03
     -0.499  0.3133E+02  0.1477E+03
     -0.438  0.3548E+02  0.1499E+03
     -0.376  0.3684E+02  0.1522E+03
     -0.315  0.3555E+02  0.1544E+03
     -0.253  0.3396E+02  0.1565E+03
     -0.191  0.3403E+02  0.1586E+03
     -0.130  0.3464E+02  0.1607E+03
     -0.068  0.3298E+02  0.1627E+03
     -0.007  0.2852E+02  0.1645E+03
      0.055  0.2374E+02  0.1660E+03
      0.117  0.2083E+02  0.1672E+03
      0.178  0.1938E+02  0.1684E+03
      0.240  0.1778E+02  0.1695E+03
      0.301  0.1544E+02  0.1705E+03
      0.363  0.1281E+02  0.1713E+03
      0.425  0.1037E+02  0.1719E+03
      0.486  0.8194E+01  0.1724E+03
      0.548  0.6232E+01  0.1728E+03
      0.610  0.4470E+01  0.1731E+03
      0.671  0.2958E+01  0.1733E+03
      0.733  0.1816E+01  0.1734E+03
      0.794  0.1151E+01  0.1734E+03
      0.856  0.8860E+00  0.1735E+03
      0.918  0.7409E+00  0.1735E+03
      0.979  0.4526E+00  0.1736E+03
      1.041 -0.1458E-01  0.1736E+03
      1.102 -0.4391E+00  0.1735E+03
      1.164 -0.3662E+00  0.1735E+03
      1.226  0.8313E+00  0.1736E+03
      1.287  0.3591E+01  0.1738E+03
      1.349  0.7494E+01  0.1743E+03
      1.410  0.1100E+02  0.1749E+03
      1.472  0.1235E+02  0.1757E+03
      1.534  0.1108E+02  0.1764E+03
      1.595  0.8547E+01  0.1769E+03
      1.657  0.6597E+01  0.1773E+03
      1.718  0.5866E+01  0.1777E+03
      1.780  0.5647E+01  0.1780E+03
      1.842  0.5217E+01  0.1783E+03
      1.903  0.4690E+01  0.1786E+03
      1.965  0.4533E+01  0.1789E+03
      2.026  0.4812E+01  0.1792E+03
      2.088  0.5241E+01  0.1795E+03
      2.150  0.5659E+01  0.1799E+03
      2.211  0.6098E+01  0.1802E+03
      2.273  0.6487E+01  0.1806E+03
      2.334  0.6584E+01  0.1811E+03
      2.396  0.6179E+01  0.1814E+03
      2.458  0.5242E+01  0.1818E+03
      2.519  0.3984E+01  0.1820E+03
      2.581  0.2836E+01  0.1822E+03
      2.642  0.2240E+01  0.1823E+03
      2.704  0.2372E+01  0.1825E+03
      2.766  0.3089E+01  0.1827E+03
      2.827  0.4029E+01  0.1829E+03
      2.889  0.4670E+01  0.1832E+03
      2.951  0.4518E+01  0.1835E+03
      3.012  0.3524E+01  0.1837E+03
      3.074  0.2272E+01  0.1838E+03
      3.135  0.1549E+01  0.1839E+03
      3.197  0.1786E+01  0.1840E+03
      3.259  0.3009E+01  0.1842E+03
      3.320  0.5080E+01  0.1845E+03
      3.382  0.7673E+01  0.1850E+03
      3.443  0.1012E+02  0.1856E+03
      3.505  0.1160E+02  0.1863E+03
      3.567  0.1160E+02  0.1871E+03
      3.628  0.1021E+02  0.1877E+03
      3.690  0.8049E+01  0.1882E+03
      3.751  0.5827E+01  0.1885E+03
      3.813  0.4022E+01  0.1888E+03
      3.875  0.2694E+01  0.1890E+03
      3.936  0.1636E+01  0.1891E+03
      3.998  0.7346E+00  0.1891E+03
      4.059  0.1719E+00  0.1891E+03
      4.121  0.2934E+00  0.1891E+03
      4.183  0.1273E+01  0.1892E+03
      4.244  0.2839E+01  0.1894E+03
      4.306  0.4305E+01  0.1896E+03
      4.367  0.4951E+01  0.1899E+03
      4.429  0.4477E+01  0.1902E+03
      4.491  0.3156E+01  0.1904E+03
      4.552  0.1620E+01  0.1905E+03
      4.614  0.5546E+00  0.1906E+03
      4.675  0.4501E+00  0.1906E+03
      4.737  0.1376E+01  0.1907E+03
      4.799  0.2807E+01  0.1908E+03
      4.860  0.3799E+01  0.1911E+03
      4.922  0.3649E+01  0.1913E+03
      4.984  0.2496E+01  0.1915E+03
      5.045  0.1199E+01  0.1915E+03
      5.107  0.5852E+00  0.1916E+03
      5.168  0.8403E+00  0.1916E+03
      5.230  0.1496E+01  0.1917E+03
      5.292  0.1891E+01  0.1918E+03
      5.353  0.1687E+01  0.1919E+03
      5.415  0.1051E+01  0.1920E+03
      5.476  0.4008E+00  0.1920E+03
      5.538  0.1377E-01  0.1920E+03
      5.600 -0.1042E+00  0.1920E+03
      5.661 -0.8616E-01  0.1920E+03
      5.723 -0.4294E-01  0.1920E+03
      5.784 -0.1557E-01  0.1920E+03
      5.846 -0.4348E-02  0.1920E+03
      5.908 -0.9600E-03  0.1920E+03
      5.969 -0.1699E-03  0.1920E+03
      6.031 -0.2431E-04  0.1920E+03
      6.092 -0.2827E-05  0.1920E+03
      6.154 -0.2682E-06  0.1920E+03
      6.216 -0.2082E-07  0.1920E+03
      6.277 -0.1324E-08  0.1920E+03
      6.339 -0.6915E-10  0.1920E+03
      6.400 -0.2969E-11  0.1920E+03
      6.462 -0.1044E-12  0.1920E+03
      6.524 -0.3460E-14  0.1920E+03
      6.585  0.0000E+00  0.1920E+03
      6.647  0.0000E+00  0.1920E+03
      6.708  0.0000E+00  0.1920E+03
      6.770  0.0000E+00  0.1920E+03
      6.832  0.0000E+00  0.1920E+03
      6.893  0.0000E+00  0.1920E+03
      6.955  0.0000E+00  0.1920E+03
      7.017  0.0000E+00  0.1920E+03
      7.078  0.0000E+00  0.1920E+03
      7.140  0.0000E+00  0.1920E+03
      7.201  0.0000E+00  0.1920E+03
      7.263  0.0000E+00  0.1920E+03
      7.26295091    -11.21885705  301     -0.15025215      1.00000000
    -11.219  0.0000E+00  0.0000E+00  0.0000E+00
    -11.157  0.0000E+00  0.0000E+00  0.0000E+00
    -11.096  0.0000E+00  0.0000E+00  0.0000E+00
    -11.034  0.0000E+00  0.0000E+00  0.0000E+00
    -10.972  0.0000E+00  0.0000E+00  0.0000E+00
    -10.911  0.0000E+00  0.0000E+00  0.0000E+00
    -10.849 -0.7252E-30 -0.8010E-31 -0.1723E-33
    -10.788 -0.9556E-28 -0.1055E-28 -0.2270E-31
    -10.726 -0.1046E-25 -0.1155E-26 -0.2486E-29
    -10.664 -0.9454E-24 -0.1044E-24 -0.2246E-27
    -10.603 -0.7051E-22 -0.7788E-23 -0.1675E-25
    -10.541 -0.4339E-20 -0.4793E-21 -0.1031E-23
    -10.480 -0.2202E-18 -0.2433E-19 -0.5233E-22
    -10.418 -0.9218E-17 -0.1018E-17 -0.2190E-20
    -10.356 -0.3079E-15 -0.3400E-16 -0.7315E-19
    -10.295 -0.8729E-14 -0.9641E-15 -0.2074E-17
    -10.233 -0.2033E-12 -0.2246E-13 -0.4831E-16
    -10.172 -0.3892E-11 -0.4299E-12 -0.9248E-15
    -10.110 -0.6117E-10 -0.6757E-11 -0.1454E-13
    -10.048 -0.7881E-09 -0.8705E-10 -0.1873E-12
     -9.987 -0.8305E-08 -0.9173E-09 -0.1973E-11
     -9.925 -0.7140E-07 -0.7887E-08 -0.1697E-10
     -9.864 -0.4989E-06 -0.5511E-07 -0.1187E-09
     -9.802 -0.2818E-05 -0.3113E-06 -0.6716E-09
     -9.740 -0.1276E-04 -0.1410E-05 -0.3059E-08
     -9.679 -0.4569E-04 -0.5048E-05 -0.1117E-07
     -9.617 -0.1262E-03 -0.1394E-04 -0.3285E-07
     -9.555 -0.2540E-03 -0.2810E-04 -0.8206E-07
     -9.494 -0.3137E-03 -0.3493E-04 -0.2075E-06
     -9.432 -0.1886E-07 -0.1401E-05 -0.6551E-06
     -9.371  0.1018E-02  0.1069E-03 -0.2326E-05
     -9.309  0.2610E-02  0.2715E-03 -0.7226E-05
     -9.247  0.3904E-02  0.3929E-03 -0.1701E-04
     -9.186  0.4081E-02  0.3923E-03 -0.2642E-04
     -9.124  0.4022E-02  0.4135E-03 -0.1344E-04
     -9.063  0.6709E-02  0.8630E-03  0.5870E-04
     -9.001  0.1456E-01  0.2048E-02  0.2094E-03
     -8.939  0.2552E-01  0.3652E-02  0.3960E-03
     -8.878  0.3304E-01  0.4737E-02  0.5169E-03
     -8.816  0.3146E-01  0.4508E-02  0.4899E-03
     -8.755  0.2156E-01  0.3079E-02  0.3283E-03
     -8.693  0.9425E-02  0.1321E-02  0.1220E-03
     -8.631  0.6609E-03  0.2693E-04 -0.4790E-04
     -8.570 -0.3156E-02 -0.5601E-03 -0.1425E-03
     -8.508 -0.2744E-02 -0.4649E-03 -0.1077E-03
     -8.447  0.1760E-02  0.4269E-03  0.1650E-03
     -8.385  0.1045E-01  0.2205E-02  0.7343E-03
     -8.323  0.2092E-01  0.4392E-02  0.1440E-02
     -8.262  0.2820E-01  0.5959E-02  0.1957E-02
     -8.200  0.2941E-01  0.6301E-02  0.2166E-02
     -8.139  0.2783E-01  0.6021E-02  0.2389E-02
     -8.077  0.2940E-01  0.6202E-02  0.3016E-02
     -8.015  0.3477E-01  0.6898E-02  0.3859E-02
     -7.954  0.3746E-01  0.6950E-02  0.4169E-02
     -7.892  0.3212E-01  0.5526E-02  0.3475E-02
     -7.831  0.2321E-01  0.3339E-02  0.2247E-02
     -7.769  0.2309E-01  0.2039E-02  0.1549E-02
     -7.707  0.3962E-01  0.2544E-02  0.1998E-02
     -7.646  0.6534E-01  0.4119E-02  0.3096E-02
     -7.584  0.8113E-01  0.5064E-02  0.3644E-02
     -7.522  0.7367E-01  0.4426E-02  0.3049E-02
     -7.461  0.4890E-01  0.3185E-02  0.2326E-02
     -7.399  0.2616E-01  0.3590E-02  0.3539E-02
     -7.338  0.1983E-01  0.6939E-02  0.7725E-02
     -7.276  0.2904E-01  0.1199E-01  0.1327E-01
     -7.214  0.4440E-01  0.1601E-01  0.1707E-01
     -7.153  0.6042E-01  0.1763E-01  0.1781E-01
     -7.091  0.7776E-01  0.1792E-01  0.1753E-01
     -7.030  0.9573E-01  0.1840E-01  0.1904E-01
     -6.968  0.1093E+00  0.1899E-01  0.2248E-01
     -6.906  0.1144E+00  0.1867E-01  0.2512E-01
     -6.845  0.1108E+00  0.1695E-01  0.2401E-01
     -6.783  0.9861E-01  0.1402E-01  0.1943E-01
     -6.722  0.8123E-01  0.1047E-01  0.1759E-01
     -6.660  0.7105E-01  0.7737E-02  0.2955E-01
     -6.598  0.8145E-01  0.7663E-02  0.6262E-01
     -6.537  0.1092E+00  0.1081E-01  0.1099E+00
     -6.475  0.1340E+00  0.1617E-01  0.1525E+00
     -6.414  0.1424E+00  0.2336E-01  0.1766E+00
     -6.352  0.1445E+00  0.3354E-01  0.1856E+00
     -6.290  0.1566E+00  0.4634E-01  0.1900E+00
     -6.229  0.1734E+00  0.5653E-01  0.1906E+00
     -6.167  0.1731E+00  0.5738E-01  0.1804E+00
     -6.106  0.1497E+00  0.4836E-01  0.1608E+00
     -6.044  0.1258E+00  0.3685E-01  0.1460E+00
     -5.982  0.1259E+00  0.3092E-01  0.1517E+00
     -5.921  0.1480E+00  0.3268E-01  0.1867E+00
     -5.859  0.1727E+00  0.3981E-01  0.2601E+00
     -5.798  0.1898E+00  0.4989E-01  0.3791E+00
     -5.736  0.2028E+00  0.6040E-01  0.5260E+00
     -5.674  0.2120E+00  0.6679E-01  0.6528E+00
     -5.613  0.2110E+00  0.6530E-01  0.7221E+00
     -5.551  0.2013E+00  0.5783E-01  0.7541E+00
     -5.489  0.1964E+00  0.5101E-01  0.8028E+00
     -5.428  0.2026E+00  0.4955E-01  0.8800E+00
     -5.366  0.2074E+00  0.5205E-01  0.9299E+00
     -5.305  0.1959E+00  0.5400E-01  0.8908E+00
     -5.243  0.1708E+00  0.5312E-01  0.7678E+00
     -5.181  0.1482E+00  0.5051E-01  0.6295E+00
     -5.120  0.1362E+00  0.4784E-01  0.5386E+00
     -5.058  0.1262E+00  0.4485E-01  0.4970E+00
     -4.997  0.1065E+00  0.4034E-01  0.4663E+00
     -4.935  0.7747E-01  0.3498E-01  0.4385E+00
     -4.873  0.5094E-01  0.3228E-01  0.4644E+00
     -4.812  0.3703E-01  0.3576E-01  0.5952E+00
     -4.750  0.3528E-01  0.4509E-01  0.8075E+00
     -4.689  0.3750E-01  0.5568E-01  0.1008E+01
     -4.627  0.3633E-01  0.6232E-01  0.1116E+01
     -4.565  0.3044E-01  0.6347E-01  0.1133E+01
     -4.504  0.2348E-01  0.6170E-01  0.1112E+01
     -4.442  0.1976E-01  0.6005E-01  0.1090E+01
     -4.381  0.2093E-01  0.5891E-01  0.1058E+01
     -4.319  0.2572E-01  0.5658E-01  0.9976E+00
     -4.257  0.3129E-01  0.5161E-01  0.9084E+00
     -4.196  0.3431E-01  0.4374E-01  0.8005E+00
     -4.134  0.3222E-01  0.3405E-01  0.6918E+00
     -4.073  0.2508E-01  0.2502E-01  0.6208E+00
     -4.011  0.1616E-01  0.1928E-01  0.6280E+00
     -3.949  0.9646E-02  0.1760E-01  0.7118E+00
     -3.888  0.7696E-02  0.1894E-01  0.8284E+00
     -3.826  0.1033E-01  0.2277E-01  0.9480E+00
     -3.765  0.1780E-01  0.3041E-01  0.1093E+01
     -3.703  0.3190E-01  0.4334E-01  0.1302E+01
     -3.641  0.5377E-01  0.6043E-01  0.1561E+01
     -3.580  0.7980E-01  0.7711E-01  0.1775E+01
     -3.518  0.1006E+00  0.8741E-01  0.1842E+01
     -3.456  0.1060E+00  0.8755E-01  0.1743E+01
     -3.395  0.9284E-01  0.7823E-01  0.1580E+01
     -3.333  0.6713E-01  0.6392E-01  0.1485E+01
     -3.272  0.3994E-01  0.4997E-01  0.1517E+01
     -3.210  0.2002E-01  0.3973E-01  0.1626E+01
     -3.148  0.1019E-01  0.3359E-01  0.1725E+01
     -3.087  0.8770E-02  0.3035E-01  0.1773E+01
     -3.025  0.1285E-01  0.2973E-01  0.1821E+01
     -2.964  0.2016E-01  0.3414E-01  0.1968E+01
     -2.902  0.2914E-01  0.4698E-01  0.2242E+01
     -2.840  0.3870E-01  0.6788E-01  0.2517E+01
     -2.779  0.4833E-01  0.9029E-01  0.2586E+01
     -2.717  0.5865E-01  0.1069E+00  0.2348E+01
     -2.656  0.7165E-01  0.1179E+00  0.1920E+01
     -2.594  0.8900E-01  0.1306E+00  0.1532E+01
     -2.532  0.1082E+00  0.1470E+00  0.1329E+01
     -2.471  0.1214E+00  0.1583E+00  0.1281E+01
     -2.409  0.1204E+00  0.1538E+00  0.1284E+01
     -2.348  0.1040E+00  0.1336E+00  0.1295E+01
     -2.286  0.7807E-01  0.1090E+00  0.1359E+01
     -2.224  0.5132E-01  0.9046E-01  0.1532E+01
     -2.163  0.3078E-01  0.8184E-01  0.1788E+01
     -2.101  0.2005E-01  0.8030E-01  0.2014E+01
     -2.040  0.1839E-01  0.7961E-01  0.2079E+01
     -1.978  0.2129E-01  0.7326E-01  0.1928E+01
     -1.916  0.2337E-01  0.5812E-01  0.1614E+01
     -1.855  0.2142E-01  0.3689E-01  0.1255E+01
     -1.793  0.1559E-01  0.1624E-01  0.9506E+00
     -1.732  0.8584E-02  0.2131E-02  0.7510E+00
     -1.670  0.3920E-02 -0.2354E-02  0.6847E+00
     -1.608  0.4247E-02  0.4320E-02  0.7844E+00
     -1.547  0.1017E-01  0.2280E-01  0.1056E+01
     -1.485  0.2003E-01  0.5078E-01  0.1438E+01
     -1.423  0.3111E-01  0.8184E-01  0.1824E+01
     -1.362  0.4163E-01  0.1082E+00  0.2137E+01
     -1.300  0.5118E-01  0.1242E+00  0.2363E+01
     -1.239  0.5900E-01  0.1269E+00  0.2508E+01
     -1.177  0.6296E-01  0.1161E+00  0.2572E+01
     -1.115  0.6153E-01  0.9568E-01  0.2544E+01
     -1.054  0.5626E-01  0.7385E-01  0.2407E+01
     -0.992  0.5082E-01  0.5915E-01  0.2144E+01
     -0.931  0.4773E-01  0.5507E-01  0.1771E+01
     -0.869  0.4635E-01  0.5733E-01  0.1374E+01
     -0.807  0.4421E-01  0.5735E-01  0.1082E+01
     -0.746  0.3988E-01  0.5028E-01  0.9905E+00
     -0.684  0.3420E-01  0.3973E-01  0.1089E+01
     -0.623  0.2920E-01  0.3408E-01  0.1288E+01
     -0.561  0.2606E-01  0.3843E-01  0.1504E+01
     -0.499  0.2434E-01  0.5018E-01  0.1703E+01
     -0.438  0.2274E-01  0.6117E-01  0.1848E+01
     -0.376  0.2100E-01  0.6397E-01  0.1883E+01
     -0.315  0.2100E-01  0.5713E-01  0.1804E+01
     -0.253  0.2503E-01  0.4514E-01  0.1713E+01
     -0.191  0.3193E-01  0.3373E-01  0.1707E+01
     -0.130  0.3649E-01  0.2576E-01  0.1740E+01
     -0.068  0.3445E-01  0.2188E-01  0.1669E+01
     -0.007  0.2769E-01  0.2335E-01  0.1455E+01
      0.055  0.2264E-01  0.3137E-01  0.1213E+01
      0.117  0.2382E-01  0.4380E-01  0.1070E+01
      0.178  0.3112E-01  0.5511E-01  0.1024E+01
      0.240  0.4264E-01  0.6074E-01  0.9963E+00
      0.301  0.5704E-01  0.6037E-01  0.9171E+00
      0.363  0.7179E-01  0.5680E-01  0.7681E+00
      0.425  0.8127E-01  0.5311E-01  0.5726E+00
      0.486  0.7946E-01  0.5085E-01  0.3785E+00
      0.548  0.6515E-01  0.4939E-01  0.2292E+00
      0.610  0.4359E-01  0.4641E-01  0.1360E+00
      0.671  0.2269E-01  0.4052E-01  0.8205E-01
      0.733  0.7901E-02  0.3366E-01  0.4888E-01
      0.794  0.2551E-03  0.2926E-01  0.2956E-01
      0.856 -0.2319E-02  0.2752E-01  0.2144E-01
      0.918 -0.2771E-02  0.2451E-01  0.1777E-01
      0.979 -0.3459E-02  0.1677E-01  0.1089E-01
      1.041 -0.5325E-02  0.5491E-02 -0.1099E-02
      1.102 -0.6681E-02 -0.4205E-02 -0.1257E-01
      1.164 -0.1818E-02 -0.5206E-02 -0.1111E-01
      1.226  0.1757E-01  0.1052E-01  0.2092E-01
      1.287  0.5527E-01  0.4798E-01  0.9675E-01
      1.349  0.1017E+00  0.1008E+00  0.2066E+00
      1.410  0.1350E+00  0.1475E+00  0.3089E+00
      1.472  0.1362E+00  0.1635E+00  0.3535E+00
      1.534  0.1064E+00  0.1414E+00  0.3250E+00
      1.595  0.6613E-01  0.9817E-01  0.2587E+00
      1.657  0.3655E-01  0.5940E-01  0.2051E+00
      1.718  0.2338E-01  0.3910E-01  0.1810E+00
      1.780  0.1889E-01  0.3569E-01  0.1659E+00
      1.842  0.1536E-01  0.4269E-01  0.1416E+00
      1.903  0.1272E-01  0.5594E-01  0.1172E+00
      1.965  0.1480E-01  0.7205E-01  0.1122E+00
      2.026  0.2290E-01  0.8681E-01  0.1308E+00
      2.088  0.3508E-01  0.9859E-01  0.1627E+00
      2.150  0.4870E-01  0.1095E+00  0.1981E+00
      2.211  0.6075E-01  0.1198E+00  0.2298E+00
      2.273  0.6698E-01  0.1235E+00  0.2468E+00
      2.334  0.6414E-01  0.1136E+00  0.2388E+00
      2.396  0.5308E-01  0.9058E-01  0.2055E+00
      2.458  0.3810E-01  0.6191E-01  0.1573E+00
      2.519  0.2414E-01  0.3583E-01  0.1078E+00
      2.581  0.1494E-01  0.1831E-01  0.6928E-01
      2.642  0.1218E-01  0.1368E-01  0.4988E-01
      2.704  0.1500E-01  0.2564E-01  0.4996E-01
      2.766  0.2106E-01  0.5559E-01  0.6357E-01
      2.827  0.2794E-01  0.9723E-01  0.8231E-01
      2.889  0.3268E-01  0.1325E+00  0.9591E-01
      2.951  0.3157E-01  0.1400E+00  0.9383E-01
      3.012  0.2280E-01  0.1140E+00  0.7335E-01
      3.074  0.9540E-02  0.7261E-01  0.4541E-01
      3.135 -0.3031E-03  0.4224E-01  0.2789E-01
      3.197  0.2601E-02  0.3641E-01  0.3347E-01
      3.259  0.2449E-01  0.5110E-01  0.6498E-01
      3.320  0.6331E-01  0.7486E-01  0.1168E+00
      3.382  0.1062E+00  0.9784E-01  0.1749E+00
      3.443  0.1347E+00  0.1145E+00  0.2202E+00
      3.505  0.1365E+00  0.1235E+00  0.2369E+00
      3.567  0.1125E+00  0.1250E+00  0.2212E+00
      3.628  0.7507E-01  0.1187E+00  0.1816E+00
      3.690  0.4030E-01  0.1039E+00  0.1327E+00
      3.751  0.1889E-01  0.8309E-01  0.8758E-01
      3.813  0.1175E-01  0.6128E-01  0.5383E-01
      3.875  0.1190E-01  0.4179E-01  0.3144E-01
      3.936  0.1151E-01  0.2461E-01  0.1611E-01
      3.998  0.7588E-02  0.1014E-01  0.5010E-02
      4.059  0.2184E-02  0.3059E-02  0.4385E-03
      4.121 -0.1025E-02  0.1049E-01  0.7955E-02
      4.183  0.9597E-03  0.3492E-01  0.3026E-01
      4.244  0.1028E-01  0.6811E-01  0.6198E-01
      4.306  0.2725E-01  0.9335E-01  0.9077E-01
      4.367  0.4758E-01  0.9687E-01  0.1045E+00
      4.429  0.6168E-01  0.7796E-01  0.9783E-01
      4.491  0.6068E-01  0.4774E-01  0.7418E-01
      4.552  0.4453E-01  0.1993E-01  0.4332E-01
      4.614  0.2272E-01  0.4297E-02  0.1794E-01
      4.675  0.5992E-02  0.5713E-02  0.8352E-02
      4.737 -0.1617E-02  0.2341E-01  0.1676E-01
      4.799 -0.2763E-02  0.4840E-01  0.3497E-01
      4.860 -0.1931E-02  0.6528E-01  0.4869E-01
      4.922 -0.1720E-02  0.6254E-01  0.4757E-01
      4.984 -0.1890E-02  0.4272E-01  0.3295E-01
      5.045  0.2015E-03  0.2052E-01  0.1561E-01
      5.107  0.7890E-02  0.1013E-01  0.5776E-02
      5.168  0.2166E-01  0.1469E-01  0.5848E-02
      5.230  0.3619E-01  0.2613E-01  0.1098E-01
      5.292  0.4285E-01  0.3299E-01  0.1458E-01
      5.353  0.3704E-01  0.2940E-01  0.1328E-01
      5.415  0.2278E-01  0.1832E-01  0.8349E-02
      5.476  0.8644E-02  0.6984E-02  0.3193E-02
      5.538  0.3078E-03  0.2401E-03  0.1070E-03
      5.600 -0.2226E-02 -0.1815E-02 -0.8346E-03
      5.661 -0.1843E-02 -0.1501E-02 -0.6899E-03
      5.723 -0.9186E-03 -0.7481E-03 -0.3438E-03
      5.784 -0.3330E-03 -0.2712E-03 -0.1246E-03
      5.846 -0.9301E-04 -0.7574E-04 -0.3481E-04
      5.908 -0.2054E-04 -0.1672E-04 -0.7686E-05
      5.969 -0.3635E-05 -0.2960E-05 -0.1360E-05
      6.031 -0.5201E-06 -0.4235E-06 -0.1946E-06
      6.092 -0.6048E-07 -0.4925E-07 -0.2263E-07
      6.154 -0.5738E-08 -0.4673E-08 -0.2147E-08
      6.216 -0.4454E-09 -0.3627E-09 -0.1666E-09
      6.277 -0.2833E-10 -0.2307E-10 -0.1060E-10
      6.339 -0.1480E-11 -0.1205E-11 -0.5536E-12
      6.400 -0.6352E-13 -0.5172E-13 -0.2377E-13
      6.462 -0.2234E-14 -0.1818E-14 -0.8354E-15
      6.524 -0.7402E-16 -0.6027E-16 -0.2770E-16
      6.585  0.0000E+00  0.0000E+00  0.0000E+00
      6.647  0.0000E+00  0.0000E+00  0.0000E+00
      6.708  0.0000E+00  0.0000E+00  0.0000E+00
      6.770  0.0000E+00  0.0000E+00  0.0000E+00
      6.832  0.0000E+00  0.0000E+00  0.0000E+00
      6.893  0.0000E+00  0.0000E+00  0.0000E+00
      6.955  0.0000E+00  0.0000E+00  0.0000E+00
      7.017  0.0000E+00  0.0000E+00  0.0000E+00
      7.078  0.0000E+00  0.0000E+00  0.0000E+00
      7.140  0.0000E+00  0.0000E+00  0.0000E+00
      7.201  0.0000E+00  0.0000E+00  0.0000E+00
      7.263  0.0000E+00  0.0000E+00  0.0000E+00
      7.26295091    -11.21885705  301     -0.15025215      1.00000000
    -11.219  0.0000E+00  0.0000E+00  0.0000E+00
    -11.157  0.0000E+00  0.0000E+00  0.0000E+00
    -11.096  0.0000E+00  0.0000E+00  0.0000E+00
    -11.034  0.0000E+00  0.0000E+00  0.0000E+00
    -10.972  0.0000E+00  0.0000E+00  0.0000E+00
    -10.911  0.0000E+00  0.0000E+00  0.0000E+00
    -10.849 -0.7249E-30 -0.8006E-31 -0.1745E-33
    -10.788 -0.9552E-28 -0.1055E-28 -0.2300E-31
    -10.726 -0.1046E-25 -0.1155E-26 -0.2518E-29
    -10.664 -0.9450E-24 -0.1044E-24 -0.2275E-27
    -10.603 -0.7048E-22 -0.7784E-23 -0.1697E-25
    -10.541 -0.4337E-20 -0.4790E-21 -0.1044E-23
    -10.480 -0.2202E-18 -0.2431E-19 -0.5300E-22
    -10.418 -0.9215E-17 -0.1018E-17 -0.2218E-20
    -10.356 -0.3077E-15 -0.3399E-16 -0.7409E-19
    -10.295 -0.8725E-14 -0.9636E-15 -0.2101E-17
    -10.233 -0.2032E-12 -0.2244E-13 -0.4893E-16
    -10.172 -0.3891E-11 -0.4297E-12 -0.9367E-15
    -10.110 -0.6115E-10 -0.6753E-11 -0.1472E-13
    -10.048 -0.7877E-09 -0.8700E-10 -0.1897E-12
     -9.987 -0.8301E-08 -0.9168E-09 -0.1999E-11
     -9.925 -0.7137E-07 -0.7882E-08 -0.1719E-10
     -9.864 -0.4987E-06 -0.5508E-07 -0.1202E-09
     -9.802 -0.2817E-05 -0.3111E-06 -0.6802E-09
     -9.740 -0.1276E-04 -0.1409E-05 -0.3098E-08
     -9.679 -0.4568E-04 -0.5045E-05 -0.1131E-07
     -9.617 -0.1261E-03 -0.1393E-04 -0.3323E-07
     -9.555 -0.2539E-03 -0.2809E-04 -0.8282E-07
     -9.494 -0.3135E-03 -0.3491E-04 -0.2083E-06
     -9.432 -0.1825E-07 -0.1401E-05 -0.6546E-06
     -9.371  0.1017E-02  0.1069E-03 -0.2321E-05
     -9.309  0.2609E-02  0.2714E-03 -0.7212E-05
     -9.247  0.3902E-02  0.3927E-03 -0.1698E-04
     -9.186  0.4079E-02  0.3920E-03 -0.2639E-04
     -9.124  0.4020E-02  0.4132E-03 -0.1342E-04
     -9.063  0.6707E-02  0.8626E-03  0.5868E-04
     -9.001  0.1455E-01  0.2047E-02  0.2093E-03
     -8.939  0.2551E-01  0.3650E-02  0.3958E-03
     -8.878  0.3303E-01  0.4735E-02  0.5167E-03
     -8.816  0.3145E-01  0.4505E-02  0.4896E-03
     -8.755  0.2155E-01  0.3077E-02  0.3281E-03
     -8.693  0.9421E-02  0.1320E-02  0.1219E-03
     -8.631  0.6607E-03  0.2691E-04 -0.4786E-04
     -8.570 -0.3155E-02 -0.5598E-03 -0.1424E-03
     -8.508 -0.2743E-02 -0.4646E-03 -0.1076E-03
     -8.447  0.1759E-02  0.4266E-03  0.1649E-03
     -8.385  0.1044E-01  0.2204E-02  0.7338E-03
     -8.323  0.2091E-01  0.4390E-02  0.1439E-02
     -8.262  0.2818E-01  0.5956E-02  0.1956E-02
     -8.200  0.2939E-01  0.6298E-02  0.2164E-02
     -8.139  0.2781E-01  0.6018E-02  0.2387E-02
     -8.077  0.2939E-01  0.6199E-02  0.3014E-02
     -8.015  0.3475E-01  0.6894E-02  0.3856E-02
     -7.954  0.3744E-01  0.6947E-02  0.4166E-02
     -7.892  0.3211E-01  0.5523E-02  0.3473E-02
     -7.831  0.2320E-01  0.3337E-02  0.2246E-02
     -7.769  0.2308E-01  0.2038E-02  0.1549E-02
     -7.707  0.3961E-01  0.2543E-02  0.2000E-02
     -7.646  0.6532E-01  0.4117E-02  0.3099E-02
     -7.584  0.8111E-01  0.5063E-02  0.3648E-02
     -7.522  0.7365E-01  0.4424E-02  0.3052E-02
     -7.461  0.4888E-01  0.3183E-02  0.2324E-02
     -7.399  0.2614E-01  0.3586E-02  0.3529E-02
     -7.338  0.1981E-01  0.6932E-02  0.7707E-02
     -7.276  0.2901E-01  0.1198E-01  0.1325E-01
     -7.214  0.4436E-01  0.1600E-01  0.1706E-01
     -7.153  0.6038E-01  0.1763E-01  0.1782E-01
     -7.091  0.7770E-01  0.1792E-01  0.1754E-01
     -7.030  0.9564E-01  0.1840E-01  0.1905E-01
     -6.968  0.1092E+00  0.1899E-01  0.2248E-01
     -6.906  0.1144E+00  0.1866E-01  0.2512E-01
     -6.845  0.1108E+00  0.1695E-01  0.2401E-01
     -6.783  0.9863E-01  0.1401E-01  0.1942E-01
     -6.722  0.8128E-01  0.1046E-01  0.1757E-01
     -6.660  0.7109E-01  0.7730E-02  0.2952E-01
     -6.598  0.8148E-01  0.7656E-02  0.6254E-01
     -6.537  0.1092E+00  0.1080E-01  0.1098E+00
     -6.475  0.1339E+00  0.1616E-01  0.1523E+00
     -6.414  0.1423E+00  0.2334E-01  0.1765E+00
     -6.352  0.1444E+00  0.3351E-01  0.1855E+00
     -6.290  0.1565E+00  0.4631E-01  0.1899E+00
     -6.229  0.1734E+00  0.5650E-01  0.1905E+00
     -6.167  0.1731E+00  0.5736E-01  0.1804E+00
     -6.106  0.1497E+00  0.4835E-01  0.1607E+00
     -6.044  0.1258E+00  0.3685E-01  0.1459E+00
     -5.982  0.1258E+00  0.3092E-01  0.1515E+00
     -5.921  0.1478E+00  0.3268E-01  0.1864E+00
     -5.859  0.1725E+00  0.3979E-01  0.2597E+00
     -5.798  0.1898E+00  0.4987E-01  0.3786E+00
     -5.736  0.2029E+00  0.6037E-01  0.5256E+00