   16   16    1    1
  0.4639925E+02  0.5643844E-09  0.5643844E-09  0.2691227E-08  0.5000000E-15
  1.000000000000000E-004
  CAR 
 unknown system                          
    160     13     96
 
  0.0000000E+00  0.0000000E+00  0.0000000E+00  0.4000000E-01
    1       -9.218857   1.000000
    2       -7.926728   1.000000
    3       -6.837865   1.000000
    4       -6.741350   1.000000
    5       -6.494558   1.000000
    6       -6.494548   1.000000
    7       -6.494528   1.000000
    8       -6.329002   1.000000
    9       -6.328969   1.000000
   10       -6.328875   1.000000
   11       -5.892286   1.000000
   12       -5.892257   1.000000
   13       -5.892247   1.000000
   14       -5.664854   1.000000
   15       -5.664818   1.000000
   16       -5.664794   1.000000
   17       -5.584471   1.000000
   18       -5.584342   1.000000
   19       -5.584317   1.000000
   20       -4.772945   1.000000
   21       -4.772904   1.000000
   22       -4.772857   1.000000
   23       -3.821468   1.000000
   24       -3.821374   1.000000
   25       -3.821355   1.000000
   26       -3.711462   1.000000
   27       -3.711425   1.000000
   28       -3.711401   1.000000
   29       -3.656125   1.000000
   30       -3.527107   1.000000
   31       -3.527099   1.000000
   32       -3.507679   1.000000
   33       -3.424086   1.000000
   34       -3.424081   1.000000
   35       -3.261911   1.000000
   36       -3.261873   1.000000
   37       -3.261866   1.000000
   38       -3.064024   1.000000
   39       -3.064019   1.000000
   40       -2.969583   1.000000
   41       -2.969575   1.000000
   42       -2.678638   1.000000
   43       -2.630875   1.000000
   44       -2.630839   1.000000
   45       -2.630829   1.000000
   46       -2.189588   1.000000
   47       -2.189498   1.000000
   48       -2.189394   1.000000
   49       -2.076784   1.000000
   50       -2.076698   1.000000
   51       -2.076654   1.000000
   52       -1.607816   1.000000
   53       -1.607787   1.000000
   54       -1.278120   1.000000
   55       -1.278090   1.000000
   56       -1.035580   1.000000
   57       -1.035555   1.000000
   58       -1.035488   1.000000
   59       -0.828124   1.000009
   60       -0.828060   1.000009
   61       -0.828010   1.000009
   62       -0.614497   1.002479
   63       -0.614456   1.002481
   64       -0.387708   1.035230
   65       -0.325571   1.007132
   66       -0.325525   1.007088
   67       -0.325512   1.007075
   68       -0.269578   0.918496
   69       -0.269540   0.918410
   70       -0.269488   0.918292
   71       -0.169329   0.580315
   72       -0.169295   0.580174
   73       -0.077494   0.213556
   74       -0.077471   0.213478
   75       -0.077464   0.213456
   76        0.085922  -0.035143
   77        0.085942  -0.035145
   78        0.086000  -0.035149
   79        0.299744  -0.003286
   80        0.299796  -0.003283
   81        0.299822  -0.003281
   82        0.335924  -0.001568
   83        0.336058  -0.001564
   84        0.336080  -0.001563
   85        0.661439  -0.000000
   86        0.871092  -0.000000
   87        0.871127  -0.000000
   88        0.871193  -0.000000
   89        2.245657  -0.000000
   90        2.245750  -0.000000
   91        2.245809  -0.000000
   92        2.544185  -0.000000
   93        2.544193  -0.000000
   94        2.544240  -0.000000
   95        2.833172  -0.000000
   96        2.833213  -0.000000
 
  0.2000000E+00  0.2775558E-16  0.0000000E+00  0.8000000E-01
    1       -8.887608   1.000000
    2       -7.601925   1.000000
    3       -6.528743   1.000000
    4       -6.506957   1.000000
    5       -6.434908   1.000000
    6       -6.270588   1.000000
    7       -6.270571   1.000000
    8       -6.231090   1.000000
    9       -6.089649   1.000000
   10       -6.089592   1.000000
   11       -5.753510   1.000000
   12       -5.724663   1.000000
   13       -5.724622   1.000000
   14       -5.651473   1.000000
   15       -5.430206   1.000000
   16       -5.427929   1.000000
   17       -5.427922   1.000000
   18       -5.290725   1.000000
   19       -5.290641   1.000000
   20       -4.685480   1.000000
   21       -4.685437   1.000000
   22       -4.669166   1.000000
   23       -3.982879   1.000000
   24       -3.982810   1.000000
   25       -3.907673   1.000000
   26       -3.807677   1.000000
   27       -3.783070   1.000000
   28       -3.700431   1.000000
   29       -3.594140   1.000000
   30       -3.594113   1.000000
   31       -3.535104   1.000000
   32       -3.289043   1.000000
   33       -3.263172   1.000000
   34       -3.245695   1.000000
   35       -3.236647   1.000000
   36       -3.236635   1.000000
   37       -3.227602   1.000000
   38       -3.185473   1.000000
   39       -3.075406   1.000000
   40       -2.968221   1.000000
   41       -2.896557   1.000000
   42       -2.896489   1.000000
   43       -2.869939   1.000000
   44       -2.845889   1.000000
   45       -2.741214   1.000000
   46       -2.662675   1.000000
   47       -2.662592   1.000000
   48       -2.341073   1.000000
   49       -2.152556   1.000000
   50       -1.984788   1.000000
   51       -1.984761   1.000000
   52       -1.788108   1.000000
   53       -1.753280   1.000000
   54       -1.478199   1.000000
   55       -1.408869   1.000000
   56       -1.408813   1.000000
   57       -1.267444   1.000000
   58       -1.258933   1.000000
   59       -1.242661   1.000000
   60       -1.242598   1.000000
   61       -1.206659   1.000000
   62       -1.086488   1.000000
   63       -1.077898   1.000000
   64       -1.077817   1.000000
   65       -0.849083   1.000005
   66       -0.686846   1.000492
   67       -0.620808   1.002179
   68       -0.595022   1.003633
   69       -0.595022   1.003633
   70       -0.481407   1.020512
   71       -0.481392   1.020515
   72       -0.480890   1.020629
   73       -0.460514   1.025318
   74       -0.414726   1.034176
   75       -0.330299   1.011438
   76       -0.330269   1.011412
   77       -0.159791   0.540312
   78       -0.153466   0.513597
   79       -0.119892   0.373162
   80       -0.119882   0.373122
   81       -0.091784   0.263932
   82        0.053342  -0.026893
   83        0.128371  -0.032021
   84        0.128377  -0.032020
   85        0.135785  -0.030618
   86        0.607387  -0.000001
   87        1.447537  -0.000000
   88        1.497299  -0.000000
   89        1.497305  -0.000000
   90        1.917009  -0.000000
   91        2.051493  -0.000000
   92        2.051516  -0.000000
   93        2.919438  -0.000000
   94        2.919483  -0.000000
   95        3.864355  -0.000000
   96        4.328341  -0.000000
 
  0.4000000E+00  0.5551115E-16  0.0000000E+00  0.8000000E-01
    1       -7.995597   1.000000
    2       -6.969773   1.000000
    3       -6.795514   1.000000
    4       -6.194990   1.000000
    5       -5.815584   1.000000
    6       -5.757365   1.000000
    7       -5.757332   1.000000
    8       -5.654194   1.000000
    9       -5.653083   1.000000
   10       -5.619025   1.000000
   11       -5.618951   1.000000
   12       -5.311551   1.000000
   13       -5.218981   1.000000
   14       -5.218960   1.000000
   15       -5.112589   1.000000
   16       -5.002762   1.000000
   17       -5.002725   1.000000
   18       -4.630565   1.000000
   19       -4.630541   1.000000
   20       -4.512794   1.000000
   21       -4.423236   1.000000
   22       -4.423180   1.000000
   23       -4.389556   1.000000
   24       -4.207697   1.000000
   25       -4.207594   1.000000
   26       -4.132083   1.000000
   27       -4.048815   1.000000
   28       -3.800546   1.000000
   29       -3.800511   1.000000
   30       -3.797876   1.000000
   31       -3.662892   1.000000
   32       -3.569895   1.000000
   33       -3.569863   1.000000
   34       -3.467991   1.000000
   35       -3.363534   1.000000
   36       -3.265429   1.000000
   37       -3.214942   1.000000
   38       -3.062999   1.000000
   39       -3.062926   1.000000
   40       -3.001028   1.000000
   41       -2.939414   1.000000
   42       -2.860888   1.000000
   43       -2.860783   1.000000
   44       -2.839202   1.000000
   45       -2.786776   1.000000
   46       -2.702876   1.000000
   47       -2.702818   1.000000
   48       -2.636391   1.000000
   49       -2.528878   1.000000
   50       -2.527627   1.000000
   51       -2.527612   1.000000
   52       -2.428822   1.000000
   53       -2.366361   1.000000
   54       -2.307153   1.000000
   55       -2.132311   1.000000
   56       -2.120383   1.000000
   57       -2.105262   1.000000
   58       -2.105164   1.000000
   59       -1.950516   1.000000
   60       -1.742552   1.000000
   61       -1.633298   1.000000
   62       -1.530524   1.000000
   63       -1.519215   1.000000
   64       -1.519195   1.000000
   65       -1.410807   1.000000
   66       -1.362184   1.000000
   67       -1.362153   1.000000
   68       -1.251485   1.000000
   69       -1.240554   1.000000
   70       -1.158985   1.000000
   71       -1.158918   1.000000
   72       -1.082894   1.000000
   73       -0.990876   1.000000
   74       -0.904407   1.000001
   75       -0.644225   1.001323
   76       -0.628817   1.001844
   77       -0.433130   1.031234
   78       -0.433106   1.031239
   79       -0.156089   0.524688
   80       -0.125271   0.395205
   81       -0.125251   0.395120
   82       -0.120294   0.374802
   83       -0.085461   0.241144
   84        0.131768  -0.031397
   85        0.131810  -0.031389
   86        0.509328  -0.000016
   87        1.700611  -0.000000
   88        1.745501  -0.000000
   89        1.745509  -0.000000
   90        2.244393  -0.000000
   91        2.244464  -0.000000
   92        2.717008  -0.000000
   93        3.375799  -0.000000
   94        3.375855  -0.000000
   95        3.659436  -0.000000
   96        5.262951  -0.000000
 
  0.0000000E+00  0.2000000E+00  0.0000000E+00  0.8000000E-01
    1       -8.887609   1.000000
    2       -7.601926   1.000000
    3       -6.528749   1.000000
    4       -6.506961   1.000000
    5       -6.434912   1.000000
    6       -6.270586   1.000000
    7       -6.270571   1.000000
    8       -6.231094   1.000000
    9       -6.089660   1.000000
   10       -6.089587   1.000000
   11       -5.753519   1.000000
   12       -5.724641   1.000000
   13       -5.724633   1.000000
   14       -5.651489   1.000000
   15       -5.430238   1.000000
   16       -5.427926   1.000000
   17       -5.427913   1.000000
   18       -5.290678   1.000000
   19       -5.290658   1.000000
   20       -4.685478   1.000000
   21       -4.685455   1.000000
   22       -4.669152   1.000000
   23       -3.982850   1.000000
   24       -3.982847   1.000000
   25       -3.907686   1.000000
   26       -3.807674   1.000000
   27       -3.783056   1.000000
   28       -3.700428   1.000000
   29       -3.594148   1.000000
   30       -3.594085   1.000000
   31       -3.535105   1.000000
   32       -3.289039   1.000000
   33       -3.263181   1.000000
   34       -3.245700   1.000000
   35       -3.236659   1.000000
   36       -3.236627   1.000000
   37       -3.227601   1.000000
   38       -3.185497   1.000000
   39       -3.075395   1.000000
   40       -2.968219   1.000000
   41       -2.896538   1.000000
   42       -2.896492   1.000000
   43       -2.869940   1.000000
   44       -2.845889   1.000000
   45       -2.741209   1.000000
   46       -2.662722   1.000000
   47       -2.662533   1.000000
   48       -2.341056   1.000000
   49       -2.152578   1.000000
   50       -1.984778   1.000000
   51       -1.984753   1.000000
   52       -1.788086   1.000000
   53       -1.753299   1.000000
   54       -1.478181   1.000000
   55       -1.408863   1.000000
   56       -1.408799   1.000000
   57       -1.267422   1.000000
   58       -1.258956   1.000000
   59       -1.242705   1.000000
   60       -1.242550   1.000000
   61       -1.206636   1.000000
   62       -1.086514   1.000000
   63       -1.077895   1.000000
   64       -1.077793   1.000000
   65       -0.849070   1.000005
   66       -0.686833   1.000492
   67       -0.620839   1.002178
   68       -0.595046   1.003632
   69       -0.594967   1.003637
   70       -0.481405   1.020512
   71       -0.481361   1.020522
   72       -0.480872   1.020633
   73       -0.460524   1.025316
   74       -0.414735   1.034175
   75       -0.330314   1.011451
   76       -0.330249   1.011394
   77       -0.159794   0.540323
   78       -0.153495   0.513718
   79       -0.119913   0.373247
   80       -0.119888   0.373147
   81       -0.091785   0.263937
   82        0.053330  -0.026888
   83        0.128320  -0.032030
   84        0.128388  -0.032018
   85        0.135814  -0.030612
   86        0.607399  -0.000001
   87        1.447548  -0.000000
   88        1.497263  -0.000000
   89        1.497305  -0.000000
   90        1.917017  -0.000000
   91        2.051449  -0.000000
   92        2.051516  -0.000000
   93        2.919377  -0.000000
   94        2.919526  -0.000000
   95        3.864367  -0.000000
   96        4.328347  -0.000000
 
  0.2000000E+00  0.2000000E+00  0.0000000E+00  0.8000000E-01
    1       -8.887608   1.000000
    2       -7.601926   1.000000
    3       -6.528736   1.000000
    4       -6.506960   1.000000
    5       -6.434910   1.000000
    6       -6.270592   1.000000
    7       -6.270576   1.000000
    8       -6.231087   1.000000
    9       -6.089678   1.000000
   10       -6.089571   1.000000
   11       -5.753516   1.000000
   12       -5.724647   1.000000
   13       -5.724632   1.000000
   14       -5.651484   1.000000
   15       -5.430226   1.000000
   16       -5.427952   1.000000
   17       -5.427892   1.000000
   18       -5.290722   1.000000
   19       -5.290626   1.000000
   20       -4.685505   1.000000
   21       -4.685426   1.000000
   22       -4.669154   1.000000
   23       -3.982895   1.000000
   24       -3.982802   1.000000
   25       -3.907681   1.000000
   26       -3.807671   1.000000
   27       -3.783058   1.000000
   28       -3.700425   1.000000
   29       -3.594132   1.000000
   30       -3.594109   1.000000
   31       -3.535101   1.000000
   32       -3.289046   1.000000
   33       -3.263176   1.000000
   34       -3.245702   1.000000
   35       -3.236673   1.000000
   36       -3.236614   1.000000
   37       -3.227597   1.000000
   38       -3.185494   1.000000
   39       -3.075396   1.000000
   40       -2.968223   1.000000
   41       -2.896517   1.000000
   42       -2.896513   1.000000
   43       -2.869938   1.000000
   44       -2.845893   1.000000
   45       -2.741214   1.000000
   46       -2.662639   1.000000
   47       -2.662618   1.000000
   48       -2.341060   1.000000
   49       -2.152577   1.000000
   50       -1.984779   1.000000
   51       -1.984752   1.000000
   52       -1.788087   1.000000
   53       -1.753297   1.000000
   54       -1.478182   1.000000
   55       -1.408837   1.000000
   56       -1.408826   1.000000
   57       -1.267425   1.000000
   58       -1.258954   1.000000
   59       -1.242648   1.000000
   60       -1.242607   1.000000
   61       -1.206639   1.000000
   62       -1.086511   1.000000
   63       -1.077848   1.000000
   64       -1.077844   1.000000
   65       -0.849072   1.000005
   66       -0.686834   1.000492
   67       -0.620835   1.002178
   68       -0.595022   1.003633
   69       -0.594995   1.003635
   70       -0.481409   1.020511
   71       -0.481368   1.020521
   72       -0.480867   1.020634
   73       -0.460521   1.025317
   74       -0.414733   1.034175
   75       -0.330284   1.011424
   76       -0.330280   1.011421
   77       -0.159789   0.540305
   78       -0.153495   0.513718
   79       -0.119913   0.373248
   80       -0.119888   0.373148
   81       -0.091784   0.263933
   82        0.053331  -0.026888
   83        0.128338  -0.032027
   84        0.128369  -0.032021
   85        0.135809  -0.030613
   86        0.607397  -0.000001
   87        1.447544  -0.000000
   88        1.497274  -0.000000
   89        1.497293  -0.000000
   90        1.917016  -0.000000
   91        2.051459  -0.000000
   92        2.051504  -0.000000
   93        2.919446  -0.000000
   94        2.919462  -0.000000
   95        3.864359  -0.000000
   96        4.328316  -0.000000
 
  0.4000000E+00  0.2000000E+00  0.0000000E+00  0.8000000E-01
    1       -8.267503   1.000000
    2       -7.017413   1.000000
    3       -6.423158   1.000000
    4       -6.423116   1.000000
    5       -5.945992   1.000000
    6       -5.945898   1.000000
    7       -5.922611   1.000000
    8       -5.894148   1.000000
    9       -5.706352   1.000000
   10       -5.695833   1.000000
   11       -5.525915   1.000000
   12       -5.525884   1.000000
   13       -5.363059   1.000000
   14       -5.363020   1.000000
   15       -5.286007   1.000000
   16       -5.028382   1.000000
   17       -5.028335   1.000000
   18       -4.871221   1.000000
   19       -4.766011   1.000000
   20       -4.527660   1.000000
   21       -4.527613   1.000000
   22       -4.465044   1.000000
   23       -4.351695   1.000000
   24       -4.229277   1.000000
   25       -4.143198   1.000000
   26       -4.037948   1.000000
   27       -3.902886   1.000000
   28       -3.902755   1.000000
   29       -3.642055   1.000000
   30       -3.628658   1.000000
   31       -3.628492   1.000000
   32       -3.523352   1.000000
   33       -3.369068   1.000000
   34       -3.368976   1.000000
   35       -3.343357   1.000000
   36       -3.340552   1.000000
   37       -3.241922   1.000000
   38       -3.146521   1.000000
   39       -3.146279   1.000000
   40       -3.104475   1.000000
   41       -3.082794   1.000000
   42       -2.956725   1.000000
   43       -2.914765   1.000000
   44       -2.798864   1.000000
   45       -2.761153   1.000000
   46       -2.761130   1.000000
   47       -2.466991   1.000000
   48       -2.466831   1.000000
   49       -2.384205   1.000000
   50       -2.301262   1.000000
   51       -2.301139   1.000000
   52       -2.285436   1.000000
   53       -2.163991   1.000000
   54       -2.151490   1.000000
   55       -2.063306   1.000000
   56       -1.994932   1.000000
   57       -1.994798   1.000000
   58       -1.984673   1.000000
   59       -1.947007   1.000000
   60       -1.877016   1.000000
   61       -1.470334   1.000000
   62       -1.469889   1.000000
   63       -1.440418   1.000000
   64       -1.390471   1.000000
   65       -1.262579   1.000000
   66       -1.262348   1.000000
   67       -1.060889   1.000000
   68       -1.007210   1.000000
   69       -1.006781   1.000000
   70       -0.984315   1.000000
   71       -0.946035   1.000000
   72       -0.698100   1.000372
   73       -0.498629   1.016761
   74       -0.498509   1.016786
   75       -0.419085   1.033600
   76       -0.419022   1.033609
   77       -0.400423   1.035356
   78       -0.325227   1.006801
   79       -0.291503   0.962038
   80       -0.127490   0.404375
   81       -0.115147   0.353965
   82       -0.114967   0.353244
   83       -0.051859   0.134347
   84        0.107077  -0.034916
   85        0.107115  -0.034913
   86        0.250680  -0.007875
   87        0.250819  -0.007857
   88        1.362250  -0.000000
   89        1.362428  -0.000000
   90        1.432560  -0.000000
   91        3.205398  -0.000000
   92        3.459992  -0.000000
   93        3.564205  -0.000000
   94        3.564455  -0.000000
   95        3.704572  -0.000000
   96        4.274697  -0.000000
 
 -0.4000000E+00  0.2000000E+00  0.0000000E+00  0.8000000E-01
    1       -7.235591   1.000000
    2       -7.235002   1.000000
    3       -6.247979   1.000000
    4       -6.208691   1.000000
    5       -6.208467   1.000000
    6       -5.683020   1.000000
    7       -5.408346   1.000000
    8       -5.407649   1.000000
    9       -5.368099   1.000000
   10       -5.276915   1.000000
   11       -5.185782   1.000000
   12       -5.117480   1.000000
   13       -5.117280   1.000000
   14       -5.009735   1.000000
   15       -4.802147   1.000000
   16       -4.794407   1.000000
   17       -4.745582   1.000000
   18       -4.745206   1.000000
   19       -4.620426   1.000000
   20       -4.561675   1.000000
   21       -4.395058   1.000000
   22       -4.395028   1.000000
   23       -4.375768   1.000000
   24       -4.365372   1.000000
   25       -4.248234   1.000000
   26       -4.248056   1.000000
   27       -4.238650   1.000000
   28       -4.170670   1.000000
   29       -3.926954   1.000000
   30       -3.696433   1.000000
   31       -3.696373   1.000000
   32       -3.677154   1.000000
   33       -3.607400   1.000000
   34       -3.565836   1.000000
   35       -3.555497   1.000000
   36       -3.555240   1.000000
   37       -3.491380   1.000000
   38       -3.456279   1.000000
   39       -3.395373   1.000000
   40       -3.395362   1.000000
   41       -3.128044   1.000000
   42       -3.127644   1.000000
   43       -3.023219   1.000000
   44       -2.878846   1.000000
   45       -2.854865   1.000000
   46       -2.854376   1.000000
   47       -2.790643   1.000000
   48       -2.776812   1.000000
   49       -2.769214   1.000000
   50       -2.731909   1.000000
   51       -2.516790   1.000000
   52       -2.516401   1.000000
   53       -2.207611   1.000000
   54       -2.175445   1.000000
   55       -2.175196   1.000000
   56       -2.063821   1.000000
   57       -2.063746   1.000000
   58       -2.061881   1.000000
   59       -1.814769   1.000000
   60       -1.814391   1.000000
   61       -1.796765   1.000000
   62       -1.630432   1.000000
   63       -1.606699   1.000000
   64       -1.421233   1.000000
   65       -1.357482   1.000000
   66       -1.357386   1.000000
   67       -1.239564   1.000000
   68       -1.199285   1.000000
   69       -1.199008   1.000000
   70       -1.085650   1.000000
   71       -1.085577   1.000000
   72       -0.877399   1.000002
   73       -0.872062   1.000002
   74       -0.871838   1.000002
   75       -0.728389   1.000170
   76       -0.728318   1.000170
   77       -0.577322   1.005039
   78       -0.432455   1.031362
   79       -0.357452   1.028471
   80       -0.350774   1.025396
   81       -0.316205   0.997275
   82       -0.315691   0.996682
   83       -0.157131   0.529087
   84       -0.153934   0.515575
   85        0.257888  -0.006994
   86        0.345763  -0.001265
   87        0.416177  -0.000231
   88        0.416247  -0.000231
   89        1.444383  -0.000000
   90        2.413441  -0.000000
   91        2.413658  -0.000000
   92        3.456228  -0.000000
   93        3.525462  -0.000000
   94        4.439246  -0.000000
   95        4.852080  -0.000000
   96        4.852238  -0.000000
 
 -0.2000000E+00  0.2000000E+00  0.0000000E+00  0.8000000E-01
    1       -8.267504   1.000000
    2       -7.017414   1.000000
    3       -6.423193   1.000000
    4       -6.423092   1.000000
    5       -5.945987   1.000000
    6       -5.945908   1.000000
    7       -5.922612   1.000000
    8       -5.894151   1.000000
    9       -5.706346   1.000000
   10       -5.695839   1.000000
   11       -5.525930   1.000000
   12       -5.525876   1.000000
   13       -5.363061   1.000000
   14       -5.363023   1.000000
   15       -5.285996   1.000000
   16       -5.028432   1.000000
   17       -5.028296   1.000000
   18       -4.871217   1.000000
   19       -4.766006   1.000000
   20       -4.527684   1.000000
   21       -4.527589   1.000000
   22       -4.465042   1.000000
   23       -4.351691   1.000000
   24       -4.229279   1.000000
   25       -4.143199   1.000000
   26       -4.037952   1.000000
   27       -3.902839   1.000000
   28       -3.902805   1.000000
   29       -3.642053   1.000000
   30       -3.628641   1.000000
   31       -3.628495   1.000000
   32       -3.523356   1.000000
   33       -3.369070   1.000000
   34       -3.368972   1.000000
   35       -3.343358   1.000000
   36       -3.340557   1.000000
   37       -3.241923   1.000000
   38       -3.146425   1.000000
   39       -3.146377   1.000000
   40       -3.104473   1.000000
   41       -3.082797   1.000000
   42       -2.956722   1.000000
   43       -2.914762   1.000000
   44       -2.798860   1.000000
   45       -2.761167   1.000000
   46       -2.761110   1.000000
   47       -2.466993   1.000000
   48       -2.466822   1.000000
   49       -2.384202   1.000000
   50       -2.301262   1.000000
   51       -2.301130   1.000000
   52       -2.285427   1.000000
   53       -2.163989   1.000000
   54       -2.151493   1.000000
   55       -2.063306   1.000000
   56       -1.994889   1.000000
   57       -1.994837   1.000000
   58       -1.984675   1.000000
   59       -1.947005   1.000000
   60       -1.877017   1.000000
   61       -1.470263   1.000000
   62       -1.469952   1.000000
   63       -1.440415   1.000000
   64       -1.390470   1.000000
   65       -1.262504   1.000000
   66       -1.262423   1.000000
   67       -1.060886   1.000000
   68       -1.007103   1.000000
   69       -1.006888   1.000000
   70       -0.984313   1.000000
   71       -0.946040   1.000000
   72       -0.698101   1.000372
   73       -0.498606   1.016766
   74       -0.498534   1.016781
   75       -0.419072   1.033602
   76       -0.419038   1.033606
   77       -0.400422   1.035357
   78       -0.325227   1.006801
   79       -0.291505   0.962042
   80       -0.127492   0.404382
   81       -0.115096   0.353761
   82       -0.115018   0.353447
   83       -0.051860   0.134351
   84        0.107084  -0.034915
   85        0.107107  -0.034913
   86        0.250726  -0.007869
   87        0.250771  -0.007863
   88        1.362297  -0.000000
   89        1.362380  -0.000000
   90        1.432563  -0.000000
   91        3.205398  -0.000000
   92        3.459988  -0.000000
   93        3.564260  -0.000000
   94        3.564401  -0.000000
   95        3.704574  -0.000000
   96        4.274699  -0.000000
 
  0.0000000E+00  0.4000000E+00  0.0000000E+00  0.8000000E-01
    1       -7.995600   1.000000
    2       -6.969779   1.000000
    3       -6.795521   1.000000
    4       -6.194997   1.000000
    5       -5.815605   1.000000
    6       -5.757368   1.000000
    7       -5.757337   1.000000
    8       -5.654192   1.000000
    9       -5.653128   1.000000
   10       -5.619005   1.000000
   11       -5.618994   1.000000
   12       -5.311566   1.000000
   13       -5.218975   1.000000
   14       -5.218957   1.000000
   15       -5.112614   1.000000
   16       -5.002748   1.000000
   17       -5.002745   1.000000
   18       -4.630609   1.000000
   19       -4.630483   1.000000
   20       -4.512806   1.000000
   21       -4.423208   1.000000
   22       -4.423200   1.000000
   23       -4.389549   1.000000
   24       -4.207685   1.000000
   25       -4.207598   1.000000
   26       -4.132063   1.000000
   27       -4.048803   1.000000
   28       -3.800565   1.000000
   29       -3.800492   1.000000
   30       -3.797855   1.000000
   31       -3.662897   1.000000
   32       -3.569916   1.000000
   33       -3.569816   1.000000
   34       -3.467991   1.000000
   35       -3.363538   1.000000
   36       -3.265413   1.000000
   37       -3.214944   1.000000
   38       -3.063067   1.000000
   39       -3.062858   1.000000
   40       -3.001046   1.000000
   41       -2.939430   1.000000
   42       -2.860929   1.000000
   43       -2.860710   1.000000
   44       -2.839181   1.000000
   45       -2.786756   1.000000
   46       -2.702874   1.000000
   47       -2.702806   1.000000
   48       -2.636393   1.000000
   49       -2.528866   1.000000
   50       -2.527619   1.000000
   51       -2.527576   1.000000
   52       -2.428784   1.000000
   53       -2.366341   1.000000
   54       -2.307158   1.000000
   55       -2.132324   1.000000
   56       -2.120385   1.000000
   57       -2.105242   1.000000
   58       -2.105148   1.000000
   59       -1.950495   1.000000
   60       -1.742559   1.000000
   61       -1.633306   1.000000
   62       -1.530496   1.000000
   63       -1.519213   1.000000
   64       -1.519162   1.000000
   65       -1.410790   1.000000
   66       -1.362192   1.000000
   67       -1.362105   1.000000
   68       -1.251504   1.000000
   69       -1.240555   1.000000
   70       -1.158954   1.000000
   71       -1.158928   1.000000
   72       -1.082878   1.000000
   73       -0.990877   1.000000
   74       -0.904416   1.000001
   75       -0.644255   1.001323
   76       -0.628839   1.001843
   77       -0.433210   1.031219
   78       -0.433042   1.031251
   79       -0.156078   0.524640
   80       -0.125295   0.395303
   81       -0.125269   0.395195
   82       -0.120321   0.374912
   83       -0.085486   0.241231
   84        0.131744  -0.031401
   85        0.131791  -0.031393
   86        0.509337  -0.000016
   87        1.700621  -0.000000
   88        1.745481  -0.000000
   89        1.745484  -0.000000
   90        2.244365  -0.000000
   91        2.244448  -0.000000
   92        2.717017  -0.000000
   93        3.375764  -0.000000
   94        3.375864  -0.000000
   95        3.659444  -0.000000
   96        5.262821  -0.000000
 
  0.2000000E+00  0.4000000E+00  0.0000000E+00  0.8000000E-01
    1       -8.267504   1.000000
    2       -7.017416   1.000000
    3       -6.423215   1.000000
    4       -6.423065   1.000000
    5       -5.945980   1.000000
    6       -5.945912   1.000000
    7       -5.922617   1.000000
    8       -5.894159   1.000000
    9       -5.706358   1.000000
   10       -5.695849   1.000000
   11       -5.525954   1.000000
   12       -5.525871   1.000000
   13       -5.363092   1.000000
   14       -5.362999   1.000000
   15       -5.285983   1.000000
   16       -5.028485   1.000000
   17       -5.028264   1.000000
   18       -4.871216   1.000000
   19       -4.766005   1.000000
   20       -4.527713   1.000000