PROCAR new format
# of k-points:   13         # of bands:   96         # of ions:   16

 k-point     1 :    0.00000000 0.00000000 0.00000000     weight = 0.04000000

band     1 # energy   -9.21885705 # occ.  2.00000000
 
ion      s      p      d    tot
    1  0.018  0.002  0.000  0.020
    2  0.018  0.002  0.000  0.020
    3  0.018  0.002  0.000  0.020
    4  0.018  0.002  0.000  0.020
    5  0.072  0.000  0.000  0.073
    6  0.072  0.000  0.000  0.073
    7  0.072  0.000  0.000  0.073
    8  0.072  0.000  0.000  0.072
    9  0.068  0.001  0.000  0.069
   10  0.068  0.001  0.000  0.069
   11  0.068  0.001  0.000  0.069
   12  0.068  0.001  0.000  0.069
   13  0.015  0.002  0.000  0.017
   14  0.015  0.002  0.000  0.017
   15  0.015  0.002  0.000  0.017
   16  0.015  0.002  0.000  0.017
tot    0.691  0.019  0.003  0.714
 
band     2 # energy   -7.92672832 # occ.  2.00000000
 
ion      s      p      d    tot
    1  0.044  0.002  0.003  0.048
    2  0.044  0.002  0.003  0.048
    3  0.044  0.002  0.003  0.048
    4  0.044  0.002  0.003  0.048
    5  0.029  0.005  0.006  0.040
    6  0.029  0.005  0.006  0.040
    7  0.029  0.005  0.006  0.040
    8  0.029  0.005  0.006  0.040
    9  0.033  0.005  0.006  0.043
   10  0.033  0.005  0.006  0.043
   11  0.033  0.005  0.006  0.043
   12  0.033  0.005  0.006  0.043
   13  0.044  0.002  0.002  0.049
   14  0.044  0.002  0.002  0.049
   15  0.044  0.002  0.002  0.049
   16  0.044  0.002  0.002  0.049
tot    0.602  0.051  0.066  0.719
 
band     3 # energy   -6.83786493 # occ.  2.00000000
 
ion      s      p      d    tot
    1  0.050  0.000  0.031  0.081
    2  0.050  0.000  0.031  0.081
    3  0.050  0.000  0.031  0.081
    4  0.050  0.000  0.031  0.081
    5  0.012  0.004  0.017  0.033
    6  0.012  0.004  0.017  0.033
    7  0.012  0.004  0.017  0.033
    8  0.012  0.004  0.017  0.033
    9  0.007  0.004  0.007  0.018
   10  0.007  0.004  0.007  0.018
   11  0.007  0.004  0.007  0.018
   12  0.007  0.004  0.007  0.018
   13  0.040  0.000  0.022  0.062
   14  0.040  0.000  0.022  0.062
   15  0.040  0.000  0.022  0.062
   16  0.040  0.000  0.022  0.062
tot    0.432  0.034  0.309  0.775
 
band     4 # energy   -6.74134971 # occ.  2.00000000
 
ion      s      p      d    tot
    1  0.013  0.000  0.016  0.029
    2  0.013  0.000  0.016  0.029
    3  0.013  0.000  0.016  0.029
    4  0.013  0.000  0.016  0.029
    5  0.013  0.000  0.046  0.059
    6  0.013  0.000  0.046  0.059
    7  0.013  0.000  0.046  0.059
    8  0.013  0.000  0.046  0.059
    9  0.018  0.000  0.054  0.072
   10  0.018  0.000  0.054  0.072
   11  0.018  0.000  0.054  0.072
   12  0.018  0.000  0.054  0.072
   13  0.025  0.000  0.024  0.050
   14  0.025  0.000  0.024  0.050
   15  0.025  0.000  0.024  0.050
   16  0.025  0.000  0.024  0.050
tot    0.277  0.002  0.559  0.838
 
band     5 # energy   -6.49455809 # occ.  2.00000000
 
ion      s      p      d    tot
    1  0.010  0.002  0.007  0.020
    2  0.000  0.001  0.016  0.017
    3  0.000  0.001  0.016  0.017
    4  0.006  0.002  0.011  0.019
    5  0.034  0.001  0.058  0.093
    6  0.002  0.000  0.102  0.104
    7  0.000  0.000  0.104  0.104
    8  0.057  0.001  0.026  0.084
    9  0.000  0.000  0.090  0.091
   10  0.050  0.001  0.025  0.076
   11  0.029  0.001  0.052  0.082
   12  0.001  0.000  0.089  0.090
   13  0.009  0.002  0.006  0.017
   14  0.000  0.001  0.014  0.014
   15  0.000  0.001  0.013  0.014
   16  0.005  0.002  0.009  0.016
tot    0.206  0.015  0.637  0.858
 
band     6 # energy   -6.49454776 # occ.  2.00000000
 
ion      s      p      d    tot
    1  0.001  0.001  0.015  0.017
    2  0.012  0.003  0.006  0.021
    3  0.001  0.001  0.015  0.017
    4  0.003  0.001  0.014  0.018
    5  0.014  0.000  0.084  0.099
    6  0.003  0.000  0.100  0.103
    7  0.068  0.001  0.012  0.080
    8  0.007  0.000  0.094  0.102
    9  0.060  0.001  0.012  0.073
   10  0.006  0.000  0.083  0.089
   11  0.013  0.001  0.074  0.087
   12  0.003  0.000  0.087  0.090
   13  0.001  0.001  0.013  0.015
   14  0.011  0.002  0.005  0.018
   15  0.001  0.001  0.013  0.014
   16  0.002  0.001  0.012  0.015
tot    0.206  0.015  0.637  0.858
 
band     7 # energy   -6.49452849 # occ.  2.00000000
 
ion      s      p      d    tot
    1  0.001  0.001  0.015  0.017
    2  0.000  0.001  0.016  0.017
    3  0.012  0.003  0.006  0.021
    4  0.004  0.001  0.013  0.018
    5  0.022  0.000  0.075  0.097
    6  0.065  0.001  0.016  0.081
    7  0.001  0.000  0.102  0.104
    8  0.005  0.000  0.097  0.102
    9  0.001  0.000  0.089  0.091
   10  0.004  0.000  0.085  0.090
   11  0.019  0.001  0.066  0.085
   12  0.057  0.001  0.016  0.074
   13  0.001  0.001  0.013  0.014
   14  0.000  0.001  0.013  0.014
   15  0.011  0.002  0.005  0.018
   16  0.004  0.001  0.011  0.015
tot    0.206  0.015  0.637  0.858
 
band     8 # energy   -6.32900242 # occ.  2.00000000
 
ion      s      p      d    tot
    1  0.001  0.001  0.015  0.016
    2  0.000  0.001  0.021  0.022
    3  0.000  0.001  0.020  0.021
    4  0.003  0.000  0.003  0.006
    5  0.021  0.000  0.018  0.039
    6  0.002  0.000  0.109  0.112
    7  0.000  0.000  0.118  0.118
    8  0.008  0.000  0.081  0.089
    9  0.000  0.001  0.118  0.119
   10  0.010  0.000  0.080  0.090
   11  0.026  0.000  0.016  0.042
   12  0.002  0.000  0.109  0.112
   13  0.000  0.001  0.012  0.013
   14  0.000  0.001  0.017  0.018
   15  0.000  0.001  0.016  0.017
   16  0.001  0.000  0.003  0.005
tot    0.075  0.008  0.757  0.840
 
band     9 # energy   -6.32896857 # occ.  2.00000000
 
ion      s      p      d    tot
    1  0.001  0.000  0.011  0.013
    2  0.000  0.001  0.021  0.022
    3  0.002  0.000  0.006  0.008
    4  0.000  0.001  0.021  0.022
    5  0.001  0.000  0.115  0.116
    6  0.018  0.000  0.032  0.051
    7  0.000  0.000  0.119  0.119
    8  0.012  0.000  0.060  0.073
    9  0.000  0.001  0.119  0.119
   10  0.015  0.000  0.059  0.075
   11  0.001  0.000  0.115  0.117
   12  0.022  0.000  0.031  0.053
   13  0.001  0.000  0.009  0.010
   14  0.000  0.001  0.017  0.018
   15  0.001  0.000  0.005  0.006
   16  0.000  0.001  0.017  0.018
tot    0.075  0.008  0.757  0.840
 
band    10 # energy   -6.32887501 # occ.  2.00000000
 
ion      s      p      d    tot
    1  0.000  0.001  0.019  0.020
    2  0.003  0.000  0.002  0.005
    3  0.000  0.001  0.018  0.020
    4  0.000  0.001  0.020  0.021
    5  0.002  0.000  0.111  0.113
    6  0.003  0.000  0.103  0.107
    7  0.023  0.000  0.008  0.031
    8  0.003  0.000  0.103  0.107
    9  0.028  0.000  0.006  0.035
   10  0.004  0.000  0.103  0.108
   11  0.002  0.000  0.111  0.114
   12  0.004  0.000  0.103  0.107
   13  0.000  0.001  0.015  0.016
   14  0.001  0.000  0.002  0.003
   15  0.000  0.001  0.015  0.016
   16  0.000  0.001  0.016  0.017
tot    0.075  0.008  0.757  0.840
 
band    11 # energy   -5.89228647 # occ.  2.00000000
 
ion      s      p      d    tot
    1  0.000  0.001  0.010  0.011
    2  0.002  0.001  0.011  0.014
    3  0.000  0.001  0.010  0.011
    4  0.005  0.003  0.014  0.022
    5  0.000  0.002  0.070  0.072
    6  0.000  0.000  0.112  0.113
    7  0.000  0.001  0.101  0.101
    8  0.000  0.000  0.111  0.111
    9  0.000  0.001  0.099  0.100
   10  0.000  0.000  0.111  0.111
   11  0.000  0.002  0.066  0.068
   12  0.000  0.000  0.112  0.112
   13  0.000  0.001  0.008  0.009
   14  0.001  0.001  0.009  0.012
   15  0.000  0.001  0.008  0.009
   16  0.005  0.002  0.013  0.020
tot    0.014  0.016  0.865  0.895
 
band    12 # energy   -5.89225650 # occ.  2.00000000
 
ion      s      p      d    tot
    1  0.002  0.001  0.011  0.014
    2  0.004  0.002  0.013  0.019
    3  0.001  0.001  0.011  0.014
    4  0.000  0.001  0.010  0.011
    5  0.000  0.000  0.112  0.112
    6  0.000  0.000  0.102  0.102
    7  0.000  0.001  0.081  0.082
    8  0.000  0.001  0.100  0.101
    9  0.000  0.001  0.078  0.079
   10  0.000  0.001  0.098  0.099
   11  0.000  0.000  0.111  0.111
   12  0.000  0.001  0.100  0.101
   13  0.002  0.001  0.009  0.012
   14  0.004  0.002  0.011  0.017
   15  0.001  0.001  0.009  0.011
   16  0.000  0.001  0.008  0.009
tot    0.014  0.016  0.865  0.895
 
band    13 # energy   -5.89224674 # occ.  2.00000000
 
ion      s      p      d    tot
    1  0.003  0.002  0.013  0.018
    2  0.000  0.001  0.010  0.010
    3  0.004  0.002  0.013  0.019
    4  0.000  0.001  0.010  0.011
    5  0.000  0.000  0.114  0.114
    6  0.000  0.001  0.082  0.083
    7  0.000  0.000  0.114  0.114
    8  0.000  0.001  0.085  0.086
    9  0.000  0.000  0.114  0.114
   10  0.000  0.001  0.082  0.083
   11  0.000  0.000  0.114  0.114
   12  0.000  0.001  0.079  0.080
   13  0.003  0.002  0.011  0.016
   14  0.000  0.001  0.007  0.008
   15  0.004  0.002  0.011  0.017
   16  0.000  0.001  0.007  0.008
tot    0.014  0.016  0.865  0.895
 
band    14 # energy   -5.66485397 # occ.  2.00000000
 
ion      s      p      d    tot
    1  0.006  0.000  0.115  0.121
    2  0.004  0.000  0.121  0.125
    3  0.002  0.000  0.126  0.128
    4  0.034  0.000  0.016  0.050
    5  0.001  0.001  0.016  0.018
    6  0.000  0.002  0.024  0.025
    7  0.000  0.002  0.023  0.025
    8  0.000  0.002  0.023  0.025
    9  0.000  0.001  0.034  0.035
   10  0.001  0.001  0.032  0.034
   11  0.004  0.000  0.010  0.014
   12  0.000  0.001  0.035  0.036
   13  0.003  0.000  0.062  0.065
   14  0.002  0.000  0.065  0.067
   15  0.001  0.000  0.068  0.069
   16  0.016  0.000  0.010  0.026
tot    0.075  0.009  0.780  0.864
 
band    15 # energy   -5.66481788 # occ.  2.00000000
 
ion      s      p      d    tot
    1  0.020  0.000  0.064  0.084
    2  0.000  0.000  0.134  0.134
    3  0.026  0.000  0.046  0.072
    4  0.000  0.000  0.133  0.133
    5  0.000  0.002  0.024  0.026
    6  0.000  0.001  0.018  0.020
    7  0.000  0.002  0.024  0.026
    8  0.000  0.001  0.020  0.021
    9  0.000  0.001  0.037  0.038
   10  0.003  0.000  0.021  0.024
   11  0.000  0.001  0.037  0.037
   12  0.003  0.000  0.017  0.020
   13  0.010  0.000  0.035  0.045
   14  0.000  0.000  0.072  0.073
   15  0.012  0.000  0.026  0.038
   16  0.000  0.000  0.072  0.072
tot    0.075  0.009  0.780  0.864
 
band    16 # energy   -5.66479403 # occ.  2.00000000
 
ion      s      p      d    tot
    1  0.009  0.000  0.105  0.113
    2  0.031  0.000  0.028  0.059
    3  0.007  0.000  0.111  0.118
    4  0.000  0.000  0.134  0.134
    5  0.000  0.002  0.024  0.026
    6  0.000  0.002  0.023  0.024
    7  0.001  0.001  0.017  0.019
    8  0.000  0.001  0.022  0.024
    9  0.004  0.000  0.012  0.016
   10  0.001  0.001  0.030  0.032
   11  0.000  0.001  0.037  0.038
   12  0.001  0.001  0.032  0.033
   13  0.004  0.000  0.056  0.061
   14  0.015  0.000  0.016  0.031
   15  0.003  0.000  0.060  0.063
   16  0.000  0.000  0.072  0.072
tot    0.075  0.009  0.780  0.864
 
band    17 # energy   -5.58447080 # occ.  2.00000000
 
ion      s      p      d    tot
    1  0.024  0.000  0.006  0.031
    2  0.001  0.001  0.085  0.086
    3  0.005  0.001  0.071  0.076
    4  0.003  0.001  0.078  0.081
    5  0.001  0.001  0.008  0.011
    6  0.002  0.002  0.008  0.012
    7  0.000  0.001  0.008  0.010
    8  0.011  0.003  0.007  0.021
    9  0.000  0.002  0.004  0.006
   10  0.009  0.003  0.014  0.026
   11  0.001  0.002  0.005  0.008
   12  0.002  0.002  0.005  0.010
   13  0.044  0.001  0.013  0.057
   14  0.002  0.000  0.149  0.151
   15  0.009  0.000  0.124  0.134
   16  0.005  0.000  0.137  0.143
tot    0.122  0.020  0.723  0.865
 
band    18 # energy   -5.58434202 # occ.  2.00000000
 
ion      s      p      d    tot
    1  0.000  0.001  0.087  0.088
    2  0.003  0.001  0.078  0.081
    3  0.009  0.001  0.058  0.068
    4  0.022  0.000  0.015  0.037
    5  0.010  0.003  0.007  0.020
    6  0.004  0.002  0.008  0.014
    7  0.001  0.001  0.008  0.011
    8  0.000  0.001  0.009  0.010
    9  0.001  0.002  0.004  0.008
   10  0.000  0.002  0.003  0.005
   11  0.008  0.003  0.013  0.024
   12  0.003  0.002  0.007  0.013
   13  0.000  0.000  0.155  0.155
   14  0.005  0.000  0.138  0.144
   15  0.016  0.000  0.104  0.120
   16  0.039  0.001  0.028  0.068
tot    0.122  0.020  0.723  0.865
 
band    19 # energy   -5.58431694 # occ.  2.00000000
 
ion      s      p      d    tot
    1  0.001  0.001  0.085  0.086
    2  0.021  0.000  0.016  0.038
    3  0.011  0.001  0.050  0.062
    4  0.000  0.001  0.087  0.087
    5  0.000  0.001  0.009  0.010
    6  0.005  0.002  0.008  0.015
    7  0.010  0.003  0.007  0.020
    8  0.000  0.001  0.009  0.010
    9  0.008  0.003  0.012  0.024
   10  0.000  0.002  0.003  0.006
   11  0.000  0.002  0.003  0.005
   12  0.004  0.002  0.008  0.015
   13  0.001  0.000  0.151  0.152
   14  0.038  0.001  0.031  0.070
   15  0.020  0.001  0.090  0.110
   16  0.000  0.000  0.153  0.154
tot    0.122  0.020  0.723  0.865
 
band    20 # energy   -4.77294542 # occ.  2.00000000
 
ion      s      p      d    tot
    1  0.001  0.002  0.032  0.034
    2  0.000  0.002  0.081  0.083
    3  0.000  0.002  0.082  0.085
    4  0.000  0.002  0.054  0.057
    5  0.001  0.006  0.029  0.036
    6  0.000  0.005  0.045  0.049
    7  0.000  0.005  0.044  0.049
    8  0.002  0.007  0.016  0.025
    9  0.000  0.004  0.052  0.056
   10  0.002  0.006  0.019  0.027
   11  0.001  0.005  0.034  0.040
   12  0.000  0.004  0.053  0.057
   13  0.001  0.002  0.033  0.035
   14  0.000  0.002  0.081  0.083
   15  0.000  0.002  0.083  0.085
   16  0.000  0.002  0.055  0.058
tot    0.007  0.059  0.792  0.858
 
band    21 # energy   -4.77290390 # occ.  2.00000000
 
ion      s      p      d    tot
    1  0.000  0.002  0.074  0.076
    2  0.000  0.002  0.081  0.083
    3  0.001  0.002  0.038  0.040
    4  0.000  0.002  0.057  0.060
    5  0.001  0.006  0.031  0.037
    6  0.001  0.007  0.020  0.028
    7  0.000  0.005  0.044  0.049
    8  0.000  0.005  0.040  0.045
    9  0.000  0.004  0.052  0.056
   10  0.000  0.004  0.047  0.052
   11  0.001  0.005  0.036  0.042
   12  0.002  0.006  0.023  0.030
   13  0.000  0.002  0.074  0.076
   14  0.000  0.002  0.081  0.083
   15  0.001  0.002  0.039  0.041
   16  0.000  0.002  0.058  0.060
tot    0.007  0.059  0.792  0.858
 
band    22 # energy   -4.77285686 # occ.  2.00000000
 
ion      s      p      d    tot
    1  0.000  0.002  0.082  0.084
    2  0.001  0.002  0.025  0.028
    3  0.000  0.002  0.067  0.069
    4  0.000  0.002  0.075  0.078
    5  0.000  0.005  0.041  0.046
    6  0.000  0.005  0.036  0.042
    7  0.002  0.007  0.013  0.022
    8  0.000  0.005  0.044  0.049
    9  0.002  0.006  0.015  0.023
   10  0.000  0.004  0.052  0.056
   11  0.000  0.004  0.048  0.053
   12  0.001  0.005  0.042  0.047
   13  0.000  0.002  0.082  0.084
   14  0.001  0.002  0.027  0.029
   15  0.000  0.002  0.067  0.069
   16  0.000  0.002  0.076  0.078
tot    0.007  0.059  0.792  0.858
 
band    23 # energy   -3.82146761 # occ.  2.00000000
 
ion      s      p      d    tot
    1  0.000  0.001  0.023  0.025
    2  0.000  0.000  0.094  0.094
    3  0.000  0.000  0.103  0.103
    4  0.000  0.001  0.091  0.092
    5  0.000  0.003  0.026  0.030
    6  0.000  0.002  0.027  0.029
    7  0.000  0.003  0.027  0.029
    8  0.001  0.010  0.019  0.030
    9  0.000  0.003  0.025  0.028
   10  0.001  0.010  0.020  0.031
   11  0.000  0.003  0.025  0.028
   12  0.000  0.002  0.026  0.028
   13  0.000  0.001  0.022  0.023
   14  0.000  0.001  0.097  0.097
   15  0.000  0.000  0.106  0.106
   16  0.000  0.001  0.094  0.095
tot    0.004  0.040  0.825  0.869
 
band    24 # energy   -3.82137402 # occ.  2.00000000
 
ion      s      p      d    tot
    1  0.000  0.000  0.106  0.106
    2  0.000  0.001  0.054  0.055
    3  0.000  0.000  0.105  0.106
    4  0.000  0.001  0.046  0.047
    5  0.001  0.008  0.022  0.030
    6  0.000  0.002  0.028  0.029
    7  0.001  0.007  0.023  0.030
    8  0.000  0.002  0.028  0.029
    9  0.001  0.007  0.022  0.030
   10  0.000  0.002  0.026  0.028
   11  0.001  0.008  0.021  0.030
   12  0.000  0.002  0.026  0.028
   13  0.000  0.000  0.109  0.110
   14  0.000  0.001  0.054  0.055
   15  0.000  0.000  0.109  0.109
   16  0.000  0.001  0.046  0.047
tot    0.004  0.040  0.825  0.869
 
band    25 # energy   -3.82135526 # occ.  2.00000000
 
ion      s      p      d    tot
    1  0.000  0.000  0.104  0.105
    2  0.000  0.001  0.085  0.086
    3  0.000  0.001  0.026  0.027
    4  0.000  0.000  0.096  0.096
    5  0.000  0.003  0.027  0.030
    6  0.001  0.010  0.020  0.031
    7  0.000  0.004  0.026  0.030
    8  0.000  0.002  0.028  0.029
    9  0.000  0.004  0.024  0.028
   10  0.000  0.002  0.026  0.028
   11  0.000  0.003  0.025  0.028
   12  0.001  0.010  0.020  0.031
   13  0.000  0.000  0.108  0.108
   14  0.000  0.001  0.088  0.088
   15  0.000  0.001  0.024  0.025
   16  0.000  0.001  0.099  0.099
tot    0.004  0.040  0.825  0.869
 
band    26 # energy   -3.71146177 # occ.  2.00000000
 
ion      s      p      d    tot
    1  0.001  0.001  0.018  0.019
    2  0.000  0.000  0.038  0.038
    3  0.000  0.000  0.038  0.038
    4  0.000  0.000  0.033  0.033
    5  0.000  0.000  0.080  0.081
    6  0.000  0.000  0.070  0.071
    7  0.000  0.000  0.069  0.070
    8  0.001  0.000  0.108  0.109
    9  0.000  0.000  0.069  0.070
   10  0.001  0.000  0.112  0.114
   11  0.000  0.000  0.079  0.080
   12  0.000  0.000  0.070  0.070
   13  0.000  0.001  0.018  0.019
   14  0.000  0.000  0.038  0.038
   15  0.000  0.000  0.038  0.038
   16  0.000  0.000  0.033  0.033
tot    0.004  0.005  0.913  0.922
 
band    27 # energy   -3.71142463 # occ.  2.00000000
 
ion      s      p      d    tot
    1  0.000  0.000  0.038  0.038
    2  0.000  0.000  0.026  0.027
    3  0.000  0.000  0.038  0.038
    4  0.000  0.000  0.025  0.026
    5  0.001  0.000  0.096  0.097
    6  0.000  0.000  0.070  0.070
    7  0.001  0.000  0.094  0.095
    8  0.000  0.000  0.069  0.070
    9  0.001  0.000  0.094  0.095
   10  0.000  0.000  0.070  0.070
   11  0.001  0.000  0.097  0.098
   12  0.000  0.000  0.070  0.071
   13  0.000  0.000  0.038  0.038
   14  0.000  0.000  0.026  0.027
   15  0.000  0.000  0.038  0.038
   16  0.000  0.001  0.025  0.026
tot    0.004  0.005  0.913  0.922
 
band    28 # energy   -3.71140141 # occ.  2.00000000
 
ion      s      p      d    tot
    1  0.000  0.000  0.039  0.039
    2  0.000  0.000  0.031  0.031
    3  0.001  0.001  0.019  0.021
    4  0.000  0.000  0.037  0.037
    5  0.000  0.000  0.071  0.072
    6  0.001  0.000  0.106  0.107
    7  0.000  0.000  0.084  0.084
    8  0.000  0.000  0.067  0.068
    9  0.000  0.000  0.084  0.085
   10  0.000  0.000  0.068  0.068
   11  0.000  0.000  0.071  0.072
   12  0.001  0.000  0.108  0.109
   13  0.000  0.000  0.039  0.039
   14  0.000  0.000  0.031  0.032
   15  0.000  0.001  0.019  0.021
   16  0.000  0.000  0.037  0.037
tot    0.004  0.005  0.913  0.922
 
band    29 # energy   -3.65612469 # occ.  2.00000000
 
ion      s      p      d    tot
    1  0.001  0.001  0.008  0.010
    2  0.001  0.001  0.009  0.011
    3  0.001  0.001  0.009  0.010
    4  0.001  0.001  0.009  0.011
    5  0.001  0.003  0.094  0.097
    6  0.001  0.003  0.095  0.098
    7  0.001  0.003  0.094  0.097
    8  0.001  0.003  0.096  0.100
    9  0.001  0.002  0.106  0.109
   10  0.001  0.002  0.104  0.107
   11  0.001  0.002  0.106  0.109
   12  0.001  0.002  0.106  0.108
   13  0.001  0.001  0.013  0.015
   14  0.001  0.001  0.013  0.015
   15  0.001  0.001  0.013  0.015
   16  0.001  0.001  0.013  0.015
tot    0.014  0.024  0.889  0.927
 
band    30 # energy   -3.52710661 # occ.  2.00000000
 
ion      s      p      d    tot
    1  0.000  0.000  0.012  0.012
    2  0.000  0.000  0.012  0.012
    3  0.000  0.000  0.012  0.012
    4  0.000  0.000  0.012  0.012
    5  0.000  0.000  0.123  0.123
    6  0.000  0.000  0.123  0.123
    7  0.000  0.000  0.123  0.123
    8  0.000  0.000  0.123  0.123
    9  0.000  0.000  0.090  0.090
   10  0.000  0.000  0.090  0.090
   11  0.000  0.000  0.090  0.090
   12  0.000  0.000  0.090  0.090
   13  0.000  0.000  0.009  0.009
   14  0.000  0.000  0.009  0.009
   15  0.000  0.000  0.009  0.009
   16  0.000  0.000  0.009  0.009
tot    0.000  0.000  0.936  0.937
 
band    31 # energy   -3.52709935 # occ.  2.00000000
 
ion      s      p      d    tot
    1  0.000  0.000  0.012  0.012
    2  0.000  0.000  0.012  0.012
    3  0.000  0.000  0.012  0.012
    4  0.000  0.000  0.012  0.012
    5  0.000  0.000  0.123  0.123
    6  0.000  0.000  0.123  0.123
    7  0.000  0.000  0.123  0.123
    8  0.000  0.000  0.123  0.123
    9  0.000  0.000  0.090  0.090
   10  0.000  0.000  0.090  0.090
   11  0.000  0.000  0.090  0.090
   12  0.000  0.000  0.090  0.090
   13  0.000  0.000  0.009  0.009
   14  0.000  0.000  0.009  0.009
   15  0.000  0.000  0.009  0.009
   16  0.000  0.000  0.009  0.009
tot    0.000  0.000  0.936  0.937
 
band    32 # energy   -3.50767882 # occ.  2.00000000
 
ion      s      p      d    tot
    1  0.000  0.003  0.072  0.075
    2  0.000  0.003  0.072  0.075
    3  0.000  0.003  0.072  0.075
    4  0.000  0.003  0.072  0.075
    5  0.002  0.004  0.038  0.045
    6  0.002  0.004  0.038  0.045
    7  0.002  0.004  0.038  0.045
    8  0.002  0.004  0.038  0.045
    9  0.002  0.004  0.028  0.035
   10  0.002  0.004  0.028  0.035
   11  0.002  0.004  0.028  0.035
   12  0.002  0.004  0.028  0.035
   13  0.000  0.002  0.067  0.070
   14  0.000  0.002  0.067  0.070
   15  0.000  0.002  0.067  0.070
   16  0.000  0.002  0.067  0.070
tot    0.022  0.053  0.822  0.897
 
band    33 # energy   -3.42408640 # occ.  2.00000000
 
ion      s      p      d    tot
    1  0.000  0.000  0.008  0.008
    2  0.000  0.000  0.008  0.008
    3  0.000  0.000  0.008  0.008
    4  0.000  0.000  0.008  0.008
    5  0.000  0.000  0.098  0.098
    6  0.000  0.000  0.098  0.098
    7  0.000  0.000  0.098  0.098
    8  0.000  0.000  0.098  0.098
    9  0.000  0.000  0.125  0.125
   10  0.000  0.000  0.125  0.125
   11  0.000  0.000  0.125  0.125
   12  0.000  0.000  0.125  0.125
   13  0.000  0.000  0.006  0.006
   14  0.000  0.000  0.006  0.006
   15  0.000  0.000  0.006  0.006
   16  0.000  0.000  0.006  0.006
tot    0.000  0.001  0.945  0.946
 
band    34 # energy   -3.42408102 # occ.  2.00000000
 
ion      s      p      d    tot
    1  0.000  0.000  0.008  0.008
    2  0.000  0.000  0.008  0.008
    3  0.000  0.000  0.008  0.008
    4  0.000  0.000  0.008  0.008
    5  0.000  0.000  0.098  0.098
    6  0.000  0.000  0.098  0.098
    7  0.000  0.000  0.098  0.098
    8  0.000  0.000  0.098  0.098
    9  0.000  0.000  0.125  0.125
   10  0.000  0.000  0.125  0.125
   11  0.000  0.000  0.125  0.125
   12  0.000  0.000  0.125  0.125
   13  0.000  0.000  0.006  0.006
   14  0.000  0.000  0.006  0.006
   15  0.000  0.000  0.006  0.006
   16  0.000  0.000  0.006  0.006
tot    0.000  0.001  0.945  0.946
 
band    35 # energy   -3.26191146 # occ.  2.00000000
 
ion      s      p      d    tot
    1  0.000  0.000  0.018  0.019
    2  0.000  0.000  0.030  0.031
    3  0.000  0.000  0.004  0.004
    4  0.000  0.001  0.031  0.031
    5  0.000  0.000  0.150  0.150
    6  0.000  0.000  0.019  0.019
    7  0.000  0.000  0.148  0.148
    8  0.000  0.000  0.090  0.090
    9  0.000  0.000  0.136  0.136
   10  0.000  0.000  0.083  0.083
   11  0.000  0.000  0.138  0.139
   12  0.000  0.000  0.017  0.017
   13  0.000  0.000  0.015  0.015
   14  0.000  0.000  0.024  0.025
   15  0.000  0.000  0.003  0.003
   16  0.000  0.000  0.025  0.025
tot    0.000  0.003  0.931  0.934
 
band    36 # energy   -3.26187258 # occ.  2.00000000
 
ion      s      p      d    tot
    1  0.000  0.001  0.031  0.032
    2  0.000  0.000  0.011  0.011
    3  0.000  0.001  0.031  0.032
    4  0.000  0.000  0.010  0.010
    5  0.000  0.000  0.049  0.049
    6  0.000  0.000  0.152  0.152
    7  0.000  0.000  0.053  0.053
    8  0.000  0.000  0.152  0.153
    9  0.000  0.000  0.049  0.049
   10  0.000  0.000  0.140  0.141
   11  0.000  0.000  0.045  0.045
   12  0.000  0.000  0.140  0.141
   13  0.000  0.000  0.025  0.025
   14  0.000  0.000  0.009  0.009
   15  0.000  0.000  0.025  0.025
   16  0.000  0.000  0.008  0.008
tot    0.000  0.003  0.931  0.934
 
band    37 # energy   -3.26186619 # occ.  2.00000000
 
ion      s      p      d    tot
    1  0.000  0.000  0.013  0.013
    2  0.000  0.000  0.021  0.022
    3  0.000  0.000  0.027  0.028
    4  0.000  0.000  0.022  0.022
    5  0.000  0.000  0.106  0.106
    6  0.000  0.000  0.134  0.134
    7  0.000  0.000  0.104  0.104
    8  0.000  0.000  0.063  0.063
    9  0.000  0.000  0.096  0.096
   10  0.000  0.000  0.058  0.058
   11  0.000  0.000  0.097  0.098
   12  0.000  0.000  0.123  0.123
   13  0.000  0.000  0.010  0.010
   14  0.000  0.000  0.017  0.017
   15  0.000  0.000  0.022  0.022
   16  0.000  0.000  0.017  0.018
tot    0.000  0.003  0.931  0.934
 
band    38 # energy   -3.06402436 # occ.  2.00000000
 
ion      s      p      d    tot
    1  0.000  0.000  0.129  0.129
    2  0.000  0.000  0.129  0.129
    3  0.000  0.000  0.129  0.129
    4  0.000  0.000  0.129  0.129
    5  0.000  0.000  0.012  0.012
    6  0.000  0.000  0.012  0.012
    7  0.000  0.000  0.012  0.012
    8  0.000  0.000  0.012  0.012
    9  0.000  0.000  0.015  0.015
   10  0.000  0.000  0.015  0.015
   11  0.000  0.000  0.015  0.015
   12  0.000  0.000  0.015  0.015
   13  0.000  0.000  0.079  0.079
   14  0.000  0.000  0.079  0.079
   15  0.000  0.000  0.079  0.079
   16  0.000  0.000  0.079  0.079
tot    0.000  0.000  0.942  0.942
 
band    39 # energy   -3.06401886 # occ.  2.00000000
 
ion      s      p      d    tot
    1  0.000  0.000  0.129  0.129
    2  0.000  0.000  0.129  0.129
    3  0.000  0.000  0.129  0.129
    4  0.000  0.000  0.129  0.129
    5  0.000  0.000  0.012  0.012
    6  0.000  0.000  0.012  0.012
    7  0.000  0.000  0.012  0.012
    8  0.000  0.000  0.012  0.012
    9  0.000  0.000  0.015  0.015
   10  0.000  0.000  0.015  0.015
   11  0.000  0.000  0.015  0.015
   12  0.000  0.000  0.015  0.015
   13  0.000  0.000  0.079  0.079
   14  0.000  0.000  0.079  0.079
   15  0.000  0.000  0.079  0.079
   16  0.000  0.000  0.079  0.079
tot    0.000  0.000  0.942  0.942
 
band    40 # energy   -2.96958268 # occ.  2.00000000
 
ion      s      p      d    tot
    1  0.000  0.000  0.077  0.077
    2  0.000  0.000  0.077  0.077
    3  0.000  0.000  0.077  0.077
    4  0.000  0.000  0.077  0.077
    5  0.000  0.000  0.012  0.013
    6  0.000  0.000  0.012  0.013
    7  0.000  0.000  0.012  0.013
    8  0.000  0.000  0.012  0.012
    9  0.000  0.000  0.014  0.014
   10  0.000  0.000  0.014  0.014
   11  0.000  0.000  0.014  0.014
   12  0.000  0.000  0.014  0.014
   13  0.000  0.000  0.133  0.133
   14  0.000  0.000  0.133  0.133
   15  0.000  0.000  0.133  0.133
   16  0.000  0.000  0.133  0.133
tot    0.000  0.001  0.944  0.945
 
band    41 # energy   -2.96957540 # occ.  2.00000000
 
ion      s      p      d    tot
    1  0.000  0.000  0.077  0.077
    2  0.000  0.000  0.077  0.077
    3  0.000  0.000  0.077  0.077
    4  0.000  0.000  0.077  0.077
    5  0.000  0.000  0.012  0.013
    6  0.000  0.000  0.012  0.013
    7  0.000  0.000  0.012  0.013
    8  0.000  0.000  0.012  0.013
    9  0.000  0.000  0.014  0.014
   10  0.000  0.000  0.014  0.014
   11  0.000  0.000  0.014  0.014
   12  0.000  0.000  0.014  0.014
   13  0.000  0.000  0.133  0.133
   14  0.000  0.000  0.133  0.133
   15  0.000  0.000  0.133  0.133
   16  0.000  0.000  0.133  0.133
tot    0.000  0.001  0.944  0.945
 
band    42 # energy   -2.67863835 # occ.  2.00000000
 
ion      s      p      d    tot
    1  0.009  0.000  0.068  0.077
    2  0.009  0.000  0.068  0.077
    3  0.009  0.000  0.068  0.077
    4  0.009  0.000  0.068  0.077
    5  0.002  0.019  0.001  0.022
    6  0.002  0.018  0.001  0.022
    7  0.002  0.019  0.001  0.022
    8  0.002  0.018  0.001  0.022
    9  0.002  0.019  0.001  0.022
   10  0.002  0.019  0.001  0.022
   11  0.002  0.019  0.001  0.022
   12  0.002  0.019  0.001  0.022
   13  0.009  0.000  0.068  0.077
   14  0.009  0.000  0.069  0.077
   15  0.009  0.000  0.068  0.077
   16  0.009  0.000  0.068  0.077
tot    0.084  0.149  0.558  0.792
 
band    43 # energy   -2.63087530 # occ.  2.00000000
 
ion      s      p      d    tot
    1  0.000  0.001  0.022  0.023
    2  0.002  0.001  0.034  0.036
    3  0.002  0.001  0.035  0.037
    4  0.010  0.003  0.133  0.146
    5  0.006  0.001  0.073  0.080
    6  0.001  0.024  0.012  0.037
    7  0.001  0.024  0.011  0.036
    8  0.000  0.027  0.003  0.031
    9  0.001  0.023  0.012  0.036
   10  0.000  0.025  0.004  0.029
   11  0.007  0.001  0.079  0.087
   12  0.001  0.023  0.012  0.036
   13  0.000  0.001  0.024  0.025
   14  0.001  0.001  0.035  0.037
   15  0.001  0.001  0.035  0.038
   16  0.009  0.003  0.124  0.136
tot    0.044  0.158  0.647  0.850
 
band    44 # energy   -2.63083936 # occ.  2.00000000
 
ion      s      p      d    tot
    1  0.000  0.001  0.017  0.017
    2  0.007  0.002  0.094  0.103
    3  0.007  0.002  0.096  0.105
    4  0.000  0.001  0.017  0.017
    5  0.000  0.028  0.000  0.029
    6  0.004  0.010  0.050  0.064
    7  0.004  0.010  0.049  0.063
    8  0.000  0.028  0.000  0.029
    9  0.005  0.010  0.053  0.067
   10  0.000  0.027  0.000  0.027
   11  0.000  0.027  0.000  0.027
   12  0.005  0.009  0.054  0.068
   13  0.000  0.001  0.019  0.019
   14  0.006  0.002  0.089  0.097
   15  0.006  0.002  0.091  0.099
   16  0.000  0.001  0.019  0.019
tot    0.044  0.158  0.647  0.850
 
band    45 # energy   -2.63082860 # occ.  2.00000000
 
ion      s      p      d    tot
    1  0.010  0.003  0.130  0.142
    2  0.002  0.001  0.039  0.042
    3  0.002  0.001  0.037  0.039
    4  0.000  0.001  0.018  0.019
    5  0.000  0.028  0.001  0.029
    6  0.001  0.024  0.013  0.037
    7  0.001  0.023  0.014  0.039
    8  0.006  0.002  0.071  0.079
    9  0.001  0.022  0.015  0.038
   10  0.007  0.002  0.076  0.085
   11  0.000  0.026  0.001  0.027