<?xml version="1.0" encoding="ISO-8859-1"?>
<modeling>
 <generator>
  <i name="program" type="string">vasp </i>
  <i name="version" type="string">5.4.4.18Apr17-6-g9f103f2a35  </i>
  <i name="subversion" type="string">(build Aug 07 2018 15:16:41) complex            parallel </i>
  <i name="platform" type="string">LinuxIFC </i>
  <i name="date" type="string">2019 10 18 </i>
  <i name="time" type="string">01:18:28 </i>
 </generator>
 <incar>
  <i type="string" name="PREC">normal</i>
  <i type="int" name="IBRION">     2</i>
  <i name="EDIFFG">     -0.03000000</i>
  <i type="int" name="NSW">     0</i>
  <i type="int" name="ISIF">     0</i>
  <i type="int" name="ISYM">     0</i>
  <i name="ENCUT">    350.00000000</i>
  <v name="RWIGS">      1.50000000</v>
  <i type="string" name="LREAL"> Auto</i>
  <i type="logical" name="LWAVE"> F  </i>
  <i type="logical" name="LCHARG"> F  </i>
  <i type="int" name="LORBIT">     0</i>
  <v type="int" name="KPOINT_BSE">    -1     0     0     0</v>
  <i type="string" name="GGA"> RP</i>
 </incar>
 <structure name="primitive_cell" >
  <crystal>
   <varray name="basis" >
    <v>       5.64384424       0.00000000       0.00000000 </v>
    <v>       2.82192212       4.88771248       0.00000000 </v>
    <v>       0.00000000       0.00000000      26.91226928 </v>
   </varray>
   <i name="volume">    742.38807929 </i>
   <varray name="rec_basis" >
    <v>       0.17718420      -0.10229734       0.00000000 </v>
    <v>       0.00000000       0.20459469       0.00000000 </v>
    <v>       0.00000000       0.00000000       0.03715777 </v>
   </varray>
  </crystal>
  <varray name="positions" >
   <v>       0.00000000       0.00000000       0.37157773 </v>
   <v>       0.16666667       0.16666667       0.45719258 </v>
   <v>       0.16666667      -0.33333333       0.45719258 </v>
   <v>      -0.33333333       0.16666667       0.45719258 </v>
   <v>       0.00000000      -0.50000000       0.37157773 </v>
   <v>      -0.50000000      -0.50000000       0.37157773 </v>
   <v>      -0.50000000       0.00000000       0.37157773 </v>
   <v>      -0.33333333      -0.33333333       0.45719258 </v>
   <v>      -0.16666689      -0.16666729      -0.45775444 </v>
   <v>       0.33333473      -0.16666788      -0.45775427 </v>
   <v>      -0.16666777       0.33333460      -0.45775142 </v>
   <v>       0.33333380       0.33333344      -0.45775093 </v>
   <v>       0.00000098      -0.00000275      -0.37128016 </v>
   <v>      -0.49999884      -0.00000162      -0.37128639 </v>
   <v>       0.49999831      -0.49999807      -0.37127487 </v>
   <v>      -0.00000035      -0.49999761      -0.37127248 </v>
  </varray>
 </structure>
 <varray name="primitive_index" >
  <v type="int" >        1 </v>
  <v type="int" >        5 </v>
  <v type="int" >        7 </v>
  <v type="int" >        6 </v>
  <v type="int" >        3 </v>
  <v type="int" >        4 </v>
  <v type="int" >        2 </v>
  <v type="int" >        8 </v>
  <v type="int" >       11 </v>
  <v type="int" >       12 </v>
  <v type="int" >        9 </v>
  <v type="int" >       10 </v>
  <v type="int" >       13 </v>
  <v type="int" >       14 </v>
  <v type="int" >       16 </v>
  <v type="int" >       15 </v>
 </varray>
 <kpoints>
  <generation param="Monkhorst-Pack">
   <v type="int" name="divisions">       5        5        1 </v>
   <v name="usershift">      0.00000000       0.00000000       0.00000000 </v>
   <v name="genvec1">      0.20000000       0.00000000       0.00000000 </v>
   <v name="genvec2">      0.00000000       0.20000000       0.00000000 </v>
   <v name="genvec3">      0.00000000       0.00000000       1.00000000 </v>
   <v name="shift">      0.00000000       0.00000000       0.00000000 </v>
  </generation>
  <varray name="kpointlist" >
   <v>       0.00000000       0.00000000       0.00000000 </v>
   <v>       0.20000000       0.00000000       0.00000000 </v>
   <v>       0.40000000       0.00000000       0.00000000 </v>
   <v>       0.00000000       0.20000000       0.00000000 </v>
   <v>       0.20000000       0.20000000       0.00000000 </v>
   <v>       0.40000000       0.20000000       0.00000000 </v>
   <v>      -0.40000000       0.20000000       0.00000000 </v>
   <v>      -0.20000000       0.20000000       0.00000000 </v>
   <v>       0.00000000       0.40000000       0.00000000 </v>
   <v>       0.20000000       0.40000000       0.00000000 </v>
   <v>       0.40000000       0.40000000       0.00000000 </v>
   <v>      -0.40000000       0.40000000       0.00000000 </v>
   <v>      -0.20000000       0.40000000       0.00000000 </v>
  </varray>
  <varray name="weights" >
   <v>       0.04000000 </v>
   <v>       0.08000000 </v>
   <v>       0.08000000 </v>
   <v>       0.08000000 </v>
   <v>       0.08000000 </v>
   <v>       0.08000000 </v>
   <v>       0.08000000 </v>
   <v>       0.08000000 </v>
   <v>       0.08000000 </v>
   <v>       0.08000000 </v>
   <v>       0.08000000 </v>
   <v>       0.08000000 </v>
   <v>       0.08000000 </v>
  </varray>
 </kpoints>
 <parameters>
  <separator name="general" >
   <i type="string" name="SYSTEM">unknown system</i>
   <i type="logical" name="LCOMPAT"> F  </i>
  </separator>
  <separator name="electronic" >
   <i type="string" name="PREC">normal</i>
   <i name="ENMAX">    350.00000000</i>
   <i name="ENAUG">    358.96600000</i>
   <i name="EDIFF">      0.00010000</i>
   <i type="int" name="IALGO">    38</i>
   <i type="int" name="IWAVPR">    10</i>
   <i type="int" name="NBANDS">    96</i>
   <i name="NELECT">    160.00000000</i>
   <i type="int" name="TURBO">     0</i>
   <i type="int" name="IRESTART">     0</i>
   <i type="int" name="NREBOOT">     0</i>
   <i type="int" name="NMIN">     0</i>
   <i name="EREF">      0.00000000</i>
   <separator name="electronic smearing" >
    <i type="int" name="ISMEAR">     1</i>
    <i name="SIGMA">      0.20000000</i>
    <i name="KSPACING">      0.50000000</i>
    <i type="logical" name="KGAMMA"> T  </i>
   </separator>
   <separator name="electronic projectors" >
    <i type="logical" name="LREAL"> T  </i>
    <v name="ROPT">     -0.00050000</v>
    <i type="int" name="LMAXPAW">  -100</i>
    <i type="int" name="LMAXMIX">     2</i>
    <i type="logical" name="NLSPLINE"> F  </i>
   </separator>
   <separator name="electronic startup" >
    <i type="int" name="ISTART">     0</i>
    <i type="int" name="ICHARG">     2</i>
    <i type="int" name="INIWAV">     1</i>
   </separator>
   <separator name="electronic spin" >
    <i type="int" name="ISPIN">     1</i>
    <i type="logical" name="LNONCOLLINEAR"> F  </i>
    <v name="MAGMOM">      1.00000000      1.00000000      1.00000000      1.00000000      1.00000000      1.00000000      1.00000000      1.00000000      1.00000000      1.00000000      1.00000000      1.00000000      1.00000000      1.00000000      1.00000000      1.00000000</v>
    <i name="NUPDOWN">     -1.00000000</i>
    <i type="logical" name="LSORBIT"> F  </i>
    <v name="SAXIS">      0.00000000      0.00000000      1.00000000</v>
    <i type="logical" name="LSPIRAL"> F  </i>
    <v name="QSPIRAL">      0.00000000      0.00000000      0.00000000</v>
    <i type="logical" name="LZEROZ"> F  </i>
   </separator>
   <separator name="electronic exchange-correlation" >
    <i type="logical" name="LASPH"> F  </i>
    <i type="logical" name="LMETAGGA"> F  </i>
   </separator>
   <separator name="electronic convergence" >
    <i type="int" name="NELM">    60</i>
    <i type="int" name="NELMDL">    -5</i>
    <i type="int" name="NELMIN">     2</i>
    <i name="ENINI">    350.00000000</i>
    <separator name="electronic convergence detail" >
     <i type="logical" name="LDIAG"> T  </i>
     <i type="logical" name="LSUBROT"> F  </i>
     <i name="WEIMIN">      0.00000000</i>
     <i name="EBREAK">      0.00000026</i>
     <i name="DEPER">      0.30000000</i>
     <i type="int" name="NRMM">     4</i>
     <i name="TIME">      0.40000000</i>
    </separator>
   </separator>
   <separator name="electronic mixer" >
    <i name="AMIX">      0.40000000</i>
    <i name="BMIX">      1.00000000</i>
    <i name="AMIN">      0.10000000</i>
    <i name="AMIX_MAG">      1.60000000</i>
    <i name="BMIX_MAG">      1.00000000</i>
    <separator name="electronic mixer details" >
     <i type="int" name="IMIX">     4</i>
     <i type="logical" name="MIXFIRST"> F  </i>
     <i type="int" name="MAXMIX">   -45</i>
     <i name="WC">    100.00000000</i>
     <i type="int" name="INIMIX">     1</i>
     <i type="int" name="MIXPRE">     1</i>
     <i type="int" name="MREMOVE">     5</i>
    </separator>
   </separator>
   <separator name="electronic dipolcorrection" >
    <i type="logical" name="LDIPOL"> F  </i>
    <i type="logical" name="LMONO"> F  </i>
    <i type="int" name="IDIPOL">     0</i>
    <i name="EPSILON">      1.00000000</i>
    <v name="DIPOL">   -100.00000000   -100.00000000   -100.00000000</v>
    <i name="EFIELD">      0.00000000</i>
   </separator>
  </separator>
  <separator name="grids" >
   <i type="int" name="NGX">    28</i>
   <i type="int" name="NGY">    28</i>
   <i type="int" name="NGZ">   126</i>
   <i type="int" name="NGXF">    56</i>
   <i type="int" name="NGYF">    56</i>
   <i type="int" name="NGZF">   252</i>
   <i type="logical" name="ADDGRID"> F  </i>
  </separator>
  <separator name="ionic" >
   <i type="int" name="NSW">     0</i>
   <i type="int" name="IBRION">    -1</i>
   <i type="int" name="MDALGO">     0</i>
   <i type="int" name="ISIF">     0</i>
   <i name="PSTRESS">      0.00000000</i>
   <i name="EDIFFG">     -0.03000000</i>
   <i type="int" name="NFREE">     1</i>
   <i name="POTIM">      0.50000000</i>
   <i name="SMASS">     -3.00000000</i>
   <i name="SCALEE">      1.00000000</i>
  </separator>
  <separator name="ionic md" >
   <i name="TEBEG">      0.00010000</i>
   <i name="TEEND">      0.00010000</i>
   <i type="int" name="NBLOCK">     1</i>
   <i type="int" name="KBLOCK">     1</i>
   <i type="int" name="NPACO">   256</i>
   <i name="APACO">     16.00000000</i>
  </separator>
  <separator name="symmetry" >
   <i type="int" name="ISYM">     0</i>
   <i name="SYMPREC">      0.00001000</i>
  </separator>
  <separator name="dos" >
   <i type="int" name="LORBIT">     0</i>
   <v name="RWIGS">      1.50000000</v>
   <i type="int" name="NEDOS">   301</i>
   <i name="EMIN">     10.00000000</i>
   <i name="EMAX">    -10.00000000</i>
   <i name="EFERMI">      0.00000000</i>
  </separator>
  <separator name="writing" >
   <i type="int" name="NWRITE">     2</i>
   <i type="logical" name="LWAVE"> F  </i>
   <i type="logical" name="LDOWNSAMPLE"> F  </i>
   <i type="logical" name="LCHARG"> F  </i>
   <i type="logical" name="LPARD"> F  </i>
   <i type="logical" name="LVTOT"> F  </i>
   <i type="logical" name="LVHAR"> F  </i>
   <i type="logical" name="LELF"> F  </i>
   <i type="logical" name="LOPTICS"> F  </i>
   <v name="STM">      0.00000000      0.00000000      0.00000000      0.00000000      0.00000000      0.00000000      0.00000000</v>
  </separator>
  <separator name="performance" >
   <i type="int" name="NPAR">     4</i>
   <i type="int" name="NSIM">     4</i>
   <i type="int" name="NBLK">    -1</i>
   <i type="logical" name="LPLANE"> T  </i>
   <i type="logical" name="LSCALAPACK"> T  </i>
   <i type="logical" name="LSCAAWARE"> F  </i>
   <i type="logical" name="LSCALU"> F  </i>
   <i type="logical" name="LASYNC"> F  </i>
   <i type="logical" name="LORBITALREAL"> F  </i>
  </separator>
  <separator name="miscellaneous" >
   <i type="int" name="IDIOT">     3</i>
   <i type="int" name="ISPECIAL">     0</i>
   <i type="logical" name="LMUSIC"> F  </i>
   <v name="POMASS">    195.08000000</v>
   <v name="DARWINR">      0.00000000</v>
   <v name="DARWINV">      1.00000000</v>
   <i type="logical" name="LCORR"> T  </i>
  </separator>
  <i type="logical" name="GGA_COMPAT"> T  </i>
  <i type="logical" name="LBERRY"> F  </i>
  <i type="int" name="ICORELEVEL">     0</i>
  <i type="logical" name="LDAU"> F  </i>
  <i type="int" name="I_CONSTRAINED_M">     0</i>
  <separator name="electronic exchange-correlation" >
   <i type="string" name="GGA">RP</i>
   <i type="int" name="VOSKOWN">     0</i>
   <i type="logical" name="LHFCALC"> F  </i>
   <i type="string" name="PRECFOCK"></i>
   <i type="logical" name="LSYMGRAD"> F  </i>
   <i type="logical" name="LHFONE"> F  </i>
   <i type="logical" name="LRHFCALC"> F  </i>
   <i type="logical" name="LTHOMAS"> F  </i>
   <i type="logical" name="LMODELHF"> F  </i>
   <i name="ENCUT4O">     -1.00000000</i>
   <i type="int" name="EXXOEP">     0</i>
   <i type="int" name="FOURORBIT">     0</i>
   <i name="AEXX">      0.00000000</i>
   <i name="HFALPHA">      0.00000000</i>
   <i name="MCALPHA">      0.00000000</i>
   <i name="ALDAX">      1.00000000</i>
   <i name="AGGAX">      1.00000000</i>
   <i name="ALDAC">      1.00000000</i>
   <i name="AGGAC">      1.00000000</i>
   <i type="int" name="NKREDX">     1</i>
   <i type="int" name="NKREDY">     1</i>
   <i type="int" name="NKREDZ">     1</i>
   <i type="logical" name="SHIFTRED"> F  </i>
   <i type="logical" name="ODDONLY"> F  </i>
   <i type="logical" name="EVENONLY"> F  </i>
   <i type="int" name="LMAXFOCK">     0</i>
   <i type="int" name="NMAXFOCKAE">     0</i>
   <i type="logical" name="LFOCKAEDFT"> F  </i>
   <i name="HFSCREEN">      0.00000000</i>
   <i name="HFSCREENC">      0.00000000</i>
   <i type="int" name="NBANDSGWLOW">     0</i>
  </separator>
  <separator name="vdW DFT" >
   <i type="logical" name="LUSE_VDW"> F  </i>
   <i name="Zab_VDW">     -0.84910000</i>
   <i name="PARAM1">      0.12340000</i>
   <i name="PARAM2">      1.00000000</i>
   <i name="PARAM3">      0.00000000</i>
  </separator>
  <separator name="model GW" >
   <i type="int" name="MODEL_GW">     0</i>
   <i name="MODEL_EPS0">     27.83955297</i>
   <i name="MODEL_ALPHA">      1.00000000</i>
  </separator>
  <separator name="linear response parameters" >
   <i type="logical" name="LEPSILON"> F  </i>
   <i type="logical" name="LRPA"> F  </i>
   <i type="logical" name="LNABLA"> F  </i>
   <i type="logical" name="LVEL"> F  </i>
   <i type="int" name="KINTER">     0</i>
   <i name="CSHIFT">      0.10000000</i>
   <i name="OMEGAMAX">     -1.00000000</i>
   <i name="DEG_THRESHOLD">      0.00200000</i>
   <i name="RTIME">     -0.10000000</i>
   <i name="WPLASMAI">      0.00000000</i>
   <v name="DFIELD">      0.00000000      0.00000000      0.00000000</v>
   <v name="WPLASMA">      0.00000000      0.00000000      0.00000000      0.00000000      0.00000000      0.00000000      0.00000000      0.00000000      0.00000000</v>
  </separator>
  <separator name="orbital magnetization" >
   <i type="logical" name="NUCIND"> F  </i>
   <v name="MAGPOS">      0.00000000      0.00000000      0.00000000</v>
   <i type="logical" name="LNICSALL"> T  </i>
   <i type="logical" name="ORBITALMAG"> F  </i>
   <i type="logical" name="LMAGBLOCH"> F  </i>
   <i type="logical" name="LCHIMAG"> F  </i>
   <i type="logical" name="LGAUGE"> T  </i>
   <i type="int" name="MAGATOM">     0</i>
   <v name="MAGDIPOL">      0.00000000      0.00000000      0.00000000</v>
   <v name="AVECCONST">      0.00000000      0.00000000      0.00000000</v>
  </separator>
  <separator name="response functions" >
   <i type="logical" name="LADDER"> F  </i>
   <i type="logical" name="LRPAFORCE"> F  </i>
   <i type="logical" name="LFXC"> F  </i>
   <i type="logical" name="LHARTREE"> T  </i>
   <i type="int" name="IBSE">     0</i>
   <v type="int" name="KPOINT">    -1     0     0     0</v>
   <i type="logical" name="LTCTE"> F  </i>
   <i type="logical" name="LTETE"> F  </i>
   <i type="logical" name="LTRIPLET"> F  </i>
   <i type="logical" name="LFXCEPS"> F  </i>
   <i type="logical" name="LFXHEG"> F  </i>
   <i type="int" name="NATURALO">     2</i>
   <i type="logical" name="L2ORDER"> F  </i>
   <i type="logical" name="LMP2LT"> F  </i>
   <i type="logical" name="LUSEW"> F  </i>
   <i name="ENCUTGW">     -2.00000000</i>
   <i name="ENCUTGWSOFT">     -2.00000000</i>
   <i name="ENCUTLF">     -1.00000000</i>
   <i type="int" name="LMAXMP2">    -1</i>
   <i name="SCISSOR">      0.00000000</i>
   <i type="int" name="NOMEGA">     0</i>
   <i type="int" name="NOMEGAR">     0</i>
   <i type="int" name="NBANDSGW">    -1</i>
   <i type="int" name="NBANDSO">    -1</i>
   <i type="int" name="NBANDSV">    -1</i>
   <i type="int" name="NELM">     1</i>
   <i type="int" name="NELMHF">     1</i>
   <i type="int" name="DIM">     3</i>
   <i type="int" name="ANTIRES">     0</i>
   <i name="OMEGAMAX">    -30.00000000</i>
   <i name="OMEGAMIN">    -30.00000000</i>
   <i name="OMEGATL">   -200.00000000</i>
   <i type="int" name="OMEGAGRID">   140</i>
   <i name="CSHIFT">     -0.10000000</i>
   <i type="logical" name="SELFENERGY"> F  </i>
   <i type="logical" name="LSPECTRAL"> F  </i>
   <i type="logical" name="LSPECTRALGW"> F  </i>
   <i type="logical" name="LSINGLES"> F  </i>
   <i type="logical" name="LFERMIGW"> F  </i>
   <i type="logical" name="ODDONLYGW"> F  </i>
   <i type="logical" name="EVENONLYGW"> F  </i>
   <i type="int" name="NKREDLFX">     1</i>
   <i type="int" name="NKREDLFY">     1</i>
   <i type="int" name="NKREDLFZ">     1</i>
   <i type="int" name="MAXMEM">  2800</i>
   <i type="int" name="TELESCOPE">     0</i>
   <i type="int" name="TAUPAR">     1</i>
   <i type="int" name="OMEGAPAR">    -1</i>
   <i name="LAMBDA">      1.00000000</i>
  </separator>
  <separator name="External order field" >
   <i name="OFIELD_KAPPA">      0.00000000</i>
   <v name="OFIELD_K">      0.00000000      0.00000000      0.00000000</v>
   <i name="OFIELD_Q6_NEAR">      0.00000000</i>
   <i name="OFIELD_Q6_FAR">      0.00000000</i>
   <i name="OFIELD_A">      0.00000000</i>
  </separator>
 </parameters>
 <atominfo>
  <atoms>      16 </atoms>
  <types>       1 </types>
  <array name="atoms" >
   <dimension dim="1">ion</dimension>
   <field type="string">element</field>
   <field type="int">atomtype</field>
   <set>
    <rc><c>Pt</c><c>   1</c></rc>
    <rc><c>Pt</c><c>   1</c></rc>
    <rc><c>Pt</c><c>   1</c></rc>
    <rc><c>Pt</c><c>   1</c></rc>
    <rc><c>Pt</c><c>   1</c></rc>
    <rc><c>Pt</c><c>   1</c></rc>
    <rc><c>Pt</c><c>   1</c></rc>
    <rc><c>Pt</c><c>   1</c></rc>
    <rc><c>Pt</c><c>   1</c></rc>
    <rc><c>Pt</c><c>   1</c></rc>
    <rc><c>Pt</c><c>   1</c></rc>
    <rc><c>Pt</c><c>   1</c></rc>
    <rc><c>Pt</c><c>   1</c></rc>
    <rc><c>Pt</c><c>   1</c></rc>
    <rc><c>Pt</c><c>   1</c></rc>
    <rc><c>Pt</c><c>   1</c></rc>
   </set>
  </array>
  <array name="atomtypes" >
   <dimension dim="1">type</dimension>
   <field type="int">atomspertype</field>
   <field type="string">element</field>
   <field>mass</field>
   <field>valence</field>
   <field type="string">pseudopotential</field>
   <set>
    <rc><c>  16</c><c>Pt</c><c>    195.08000000</c><c>     10.00000000</c><c>  PAW_PBE Pt 04Feb2005                  </c></rc>
   </set>
  </array>
 </atominfo>
 <structure name="initialpos" >
  <crystal>
   <varray name="basis" >
    <v>       5.64384424       0.00000000       0.00000000 </v>
    <v>       2.82192212       4.88771248       0.00000000 </v>
    <v>       0.00000000       0.00000000      26.91226928 </v>
   </varray>
   <i name="volume">    742.38807929 </i>
   <varray name="rec_basis" >
    <v>       0.17718420      -0.10229734       0.00000000 </v>
    <v>       0.00000000       0.20459469       0.00000000 </v>
    <v>       0.00000000       0.00000000       0.03715777 </v>
   </varray>
  </crystal>
  <varray name="positions" >
   <v>       0.00000000       0.00000000       0.37157773 </v>
   <v>       0.50000000       0.00000000       0.37157773 </v>
   <v>       0.00000000       0.50000000       0.37157773 </v>
   <v>       0.50000000       0.50000000       0.37157773 </v>
   <v>       0.16666667       0.16666667       0.45719258 </v>
   <v>       0.66666667       0.16666667       0.45719258 </v>
   <v>       0.16666667       0.66666667       0.45719258 </v>
   <v>       0.66666667       0.66666667       0.45719258 </v>
   <v>       0.83333223       0.33333460       0.54224858 </v>
   <v>       0.33333380       0.33333344       0.54224907 </v>
   <v>       0.83333311       0.83333271       0.54224556 </v>
   <v>       0.33333473       0.83333212       0.54224573 </v>
   <v>       0.00000098       0.99999725       0.62871984 </v>
   <v>       0.50000116       0.99999838       0.62871361 </v>
   <v>       0.99999965       0.50000239       0.62872752 </v>
   <v>       0.49999831       0.50000193       0.62872513 </v>
  </varray>
  <varray name="selective"  type="logical" >
   <v type="logical" >  F  F  F </v>
   <v type="logical" >  F  F  F </v>
   <v type="logical" >  F  F  F </v>
   <v type="logical" >  F  F  F </v>
   <v type="logical" >  F  F  F </v>
   <v type="logical" >  F  F  F </v>
   <v type="logical" >  F  F  F </v>
   <v type="logical" >  F  F  F </v>
   <v type="logical" >  T  T  T </v>
   <v type="logical" >  T  T  T </v>
   <v type="logical" >  T  T  T </v>
   <v type="logical" >  T  T  T </v>
   <v type="logical" >  T  T  T </v>
   <v type="logical" >  T  T  T </v>
   <v type="logical" >  T  T  T </v>
   <v type="logical" >  T  T  T </v>
  </varray>
  <nose>
   <v>      -3.00000000       0.00000000       0.00010000       0.00010000 </v>
  </nose>
 </structure>
 <calculation>
  <scstep>
   <time name="dav">    5.55    5.55</time>
   <time name="total">    5.61    5.62</time>
   <energy>
    <i name="alphaZ">    327.79239094 </i>
    <i name="ewald">  70816.88615504 </i>
    <i name="hartreedc"> -82996.89424619 </i>
    <i name="XCdc">     47.62968478 </i>
    <i name="pawpsdc">  11147.29520678 </i>
    <i name="pawaedc"> -10679.33236820 </i>
    <i name="eentropy">     -0.00492294 </i>
    <i name="bandstr">    641.71748901 </i>
    <i name="atom">  11652.96080409 </i>
    <i name="e_fr_energy">    958.05019330 </i>
    <i name="e_wo_entrp">    958.05511624 </i>
    <i name="e_0_energy">    958.05183428 </i>
   </energy>
  </scstep>
  <scstep>
   <time name="dav">    6.65    6.66</time>
   <time name="total">    6.66    6.66</time>
   <energy>
    <i name="e_fr_energy">    -11.29394481 </i>
    <i name="e_wo_entrp">    -11.29726785 </i>
    <i name="e_0_energy">    -11.29505249 </i>
   </energy>
  </scstep>
  <scstep>
   <time name="dav">    6.40    6.41</time>
   <time name="total">    6.41    6.41</time>
   <energy>
    <i name="e_fr_energy">    -85.21995542 </i>
    <i name="e_wo_entrp">    -85.19876581 </i>
    <i name="e_0_energy">    -85.21289222 </i>
   </energy>
  </scstep>
  <scstep>
   <time name="dav">    7.10    7.10</time>
   <time name="total">    7.10    7.10</time>
   <energy>
    <i name="e_fr_energy">    -88.10965054 </i>
    <i name="e_wo_entrp">    -88.09448894 </i>
    <i name="e_0_energy">    -88.10459667 </i>
   </energy>
  </scstep>
  <scstep>
   <time name="dav">    6.84    6.85</time>
   <time name="total">    7.18    7.19</time>
   <energy>
    <i name="e_fr_energy">    -88.18259448 </i>
    <i name="e_wo_entrp">    -88.16759730 </i>
    <i name="e_0_energy">    -88.17759542 </i>
   </energy>
  </scstep>
  <scstep>
   <time name="dav">    6.07    6.07</time>
   <time name="total">    6.51    6.52</time>
   <energy>
    <i name="e_fr_energy">    -84.64267716 </i>
    <i name="e_wo_entrp">    -84.58304079 </i>
    <i name="e_0_energy">    -84.62279837 </i>
   </energy>
  </scstep>
  <scstep>
   <time name="dav">    6.63    6.63</time>
   <time name="total">    7.07    7.08</time>
   <energy>
    <i name="e_fr_energy">   -106.01476903 </i>
    <i name="e_wo_entrp">   -106.00866763 </i>
    <i name="e_0_energy">   -106.01273523 </i>
   </energy>
  </scstep>
  <scstep>
   <time name="dav">    6.74    6.74</time>
   <time name="total">    7.11    7.11</time>
   <energy>
    <i name="e_fr_energy">    -87.12757334 </i>
    <i name="e_wo_entrp">    -87.09076481 </i>
    <i name="e_0_energy">    -87.11530383 </i>
   </energy>
  </scstep>
  <scstep>
   <time name="dav">    6.50    6.50</time>
   <time name="total">    6.81    6.81</time>
   <energy>
    <i name="e_fr_energy">    -89.25216976 </i>
    <i name="e_wo_entrp">    -89.31028257 </i>
    <i name="e_0_energy">    -89.27154070 </i>
   </energy>
  </scstep>
  <scstep>
   <time name="dav">    6.04    6.04</time>
   <time name="total">    6.34    6.35</time>
   <energy>
    <i name="e_fr_energy">    -88.16464654 </i>
    <i name="e_wo_entrp">    -88.14318821 </i>
    <i name="e_0_energy">    -88.15749376 </i>
   </energy>
  </scstep>
  <scstep>
   <time name="dav">    6.13    6.14</time>
   <time name="total">    6.50    6.50</time>
   <energy>
    <i name="e_fr_energy">    -83.70493125 </i>
    <i name="e_wo_entrp">    -83.66257709 </i>
    <i name="e_0_energy">    -83.69081320 </i>
   </energy>
  </scstep>
  <scstep>
   <time name="dav">    5.95    5.95</time>
   <time name="total">    6.37    6.37</time>
   <energy>
    <i name="e_fr_energy">    -83.37488714 </i>
    <i name="e_wo_entrp">    -83.32794254 </i>
    <i name="e_0_energy">    -83.35923894 </i>
   </energy>
  </scstep>
  <scstep>
   <time name="dav">    6.24    6.24</time>
   <time name="total">    6.60    6.60</time>
   <energy>
    <i name="e_fr_energy">    -83.00045613 </i>
    <i name="e_wo_entrp">    -82.95045549 </i>
    <i name="e_0_energy">    -82.98378925 </i>
   </energy>
  </scstep>
  <scstep>
   <time name="dav">    5.92    5.92</time>
   <time name="total">    6.39    6.39</time>
   <energy>
    <i name="e_fr_energy">    -83.02291599 </i>
    <i name="e_wo_entrp">    -82.97374492 </i>
    <i name="e_0_energy">    -83.00652563 </i>
   </energy>
  </scstep>
  <scstep>
   <time name="dav">    7.36    7.37</time>
   <time name="total">    7.85    7.85</time>
   <energy>
    <i name="e_fr_energy">    -83.02425317 </i>
    <i name="e_wo_entrp">    -82.97518042 </i>
    <i name="e_0_energy">    -83.00789559 </i>
   </energy>
  </scstep>
  <scstep>
   <time name="dav">    6.13    6.13</time>
   <time name="total">    6.52    6.52</time>
   <energy>
    <i name="e_fr_energy">    -83.02512439 </i>
    <i name="e_wo_entrp">    -82.97587331 </i>
    <i name="e_0_energy">    -83.00870736 </i>
   </energy>
  </scstep>
  <scstep>
   <time name="dav">    5.98    5.98</time>
   <time name="total">    6.41    6.41</time>
   <energy>
    <i name="e_fr_energy">    -82.99631786 </i>
    <i name="e_wo_entrp">    -82.94591311 </i>
    <i name="e_0_energy">    -82.97951627 </i>
   </energy>
  </scstep>
  <scstep>
   <time name="dav">    5.73    5.73</time>
   <time name="total">    6.10    6.10</time>
   <energy>
    <i name="e_fr_energy">    -82.94076002 </i>
    <i name="e_wo_entrp">    -82.88712077 </i>
    <i name="e_0_energy">    -82.92288027 </i>
   </energy>
  </scstep>
  <scstep>
   <time name="dav">    5.69    5.69</time>
   <time name="total">    6.10    6.10</time>
   <energy>
    <i name="e_fr_energy">    -82.94274802 </i>
    <i name="e_wo_entrp">    -82.88887995 </i>
    <i name="e_0_energy">    -82.92479200 </i>
   </energy>
  </scstep>
  <scstep>
   <time name="dav">    4.85    4.86</time>
   <time name="total">    5.18    5.18</time>
   <energy>
    <i name="e_fr_energy">    -82.94331377 </i>
    <i name="e_wo_entrp">    -82.88947344 </i>
    <i name="e_0_energy">    -82.92536699 </i>
   </energy>
  </scstep>
  <scstep>
   <time name="dav">    5.91    5.91</time>
   <time name="total">    6.43    6.43</time>
   <energy>
    <i name="e_fr_energy">    -82.94089584 </i>
    <i name="e_wo_entrp">    -82.88703759 </i>
    <i name="e_0_energy">    -82.92294309 </i>
   </energy>
  </scstep>
  <scstep>
   <time name="dav">    6.10    6.10</time>
   <time name="total">    6.48    6.48</time>
   <energy>
    <i name="e_fr_energy">    -82.93915090 </i>
    <i name="e_wo_entrp">    -82.88509954 </i>
    <i name="e_0_energy">    -82.92113378 </i>
   </energy>
  </scstep>
  <scstep>
   <time name="dav">    4.91    4.91</time>
   <time name="total">    5.27    5.27</time>
   <energy>
    <i name="e_fr_energy">    -82.93872648 </i>
    <i name="e_wo_entrp">    -82.88463988 </i>
    <i name="e_0_energy">    -82.92069761 </i>
   </energy>
  </scstep>
  <scstep>
   <time name="dav">    5.00    5.03</time>
   <time name="total">    5.28    5.32</time>
   <energy>
    <i name="e_fr_energy">    -82.93825281 </i>
    <i name="e_wo_entrp">    -82.88429887 </i>
    <i name="e_0_energy">    -82.92026816 </i>
   </energy>
  </scstep>
  <scstep>
   <time name="dav">    2.68    2.72</time>
   <time name="total">    2.96    3.01</time>
   <energy>
    <i name="e_fr_energy">    -82.93811973 </i>
    <i name="e_wo_entrp">    -82.88418895 </i>
    <i name="e_0_energy">    -82.92014281 </i>
   </energy>
  </scstep>
  <scstep>
   <time name="dav">    2.69    2.74</time>
   <time name="total">    2.74    2.78</time>
   <energy>
    <i name="alphaZ">    327.79239094 </i>
    <i name="ewald">  70816.88615504 </i>
    <i name="hartreedc"> -82845.23230281 </i>
    <i name="XCdc">     42.83256486 </i>
    <i name="pawpsdc">  13873.78728198 </i>
    <i name="pawaedc"> -13446.25442869 </i>
    <i name="eentropy">     -0.05393821 </i>
    <i name="bandstr">   -505.65661452 </i>
    <i name="atom">  11652.96080409 </i>
    <i name="e_fr_energy">    -82.93808732 </i>
    <i name="e_wo_entrp">    -82.88414911 </i>
    <i name="e_0_energy">    -82.92010792 </i>
   </energy>
  </scstep>
  <structure>
   <crystal>
    <varray name="basis" >
     <v>       5.64384424       0.00000000       0.00000000 </v>
     <v>       2.82192212       4.88771248       0.00000000 </v>
     <v>       0.00000000       0.00000000      26.91226928 </v>
    </varray>
    <i name="volume">    742.38807929 </i>
    <varray name="rec_basis" >
     <v>       0.17718420      -0.10229734       0.00000000 </v>
     <v>       0.00000000       0.20459469       0.00000000 </v>
     <v>       0.00000000       0.00000000       0.03715777 </v>
    </varray>
   </crystal>
   <varray name="positions" >
    <v>       0.00000000       0.00000000       0.37157773 </v>
    <v>       0.50000000       0.00000000       0.37157773 </v>
    <v>       0.00000000       0.50000000       0.37157773 </v>
    <v>       0.50000000       0.50000000       0.37157773 </v>
    <v>       0.16666667       0.16666667       0.45719258 </v>
    <v>       0.66666667       0.16666667       0.45719258 </v>
    <v>       0.16666667       0.66666667       0.45719258 </v>
    <v>       0.66666667       0.66666667       0.45719258 </v>
    <v>       0.83333223       0.33333460       0.54224858 </v>
    <v>       0.33333380       0.33333344       0.54224907 </v>
    <v>       0.83333311       0.83333271       0.54224556 </v>
    <v>       0.33333473       0.83333212       0.54224573 </v>
    <v>       0.00000098       0.99999725       0.62871984 </v>
    <v>       0.50000116       0.99999838       0.62871361 </v>
    <v>       0.99999965       0.50000239       0.62872752 </v>
    <v>       0.49999831       0.50000193       0.62872513 </v>
   </varray>
  </structure>
  <varray name="forces" >
   <v>      -0.00000756      -0.00008262      -0.11296977 </v>
   <v>       0.00007426      -0.00010009      -0.11115378 </v>
   <v>      -0.00001737       0.00006307      -0.11154715 </v>
   <v>       0.00009932       0.00006443      -0.11067700 </v>
   <v>      -0.00004635       0.00003193       0.12883592 </v>
   <v>       0.00006727      -0.00010572       0.12908983 </v>
   <v>      -0.00010825       0.00003416       0.12967209 </v>
   <v>       0.00009653      -0.00003259       0.12982546 </v>
   <v>       0.00003661       0.00028068      -0.01195521 </v>
   <v>      -0.00003321       0.00043425      -0.01113786 </v>
   <v>       0.00002896      -0.00033089      -0.01171600 </v>
   <v>      -0.00007719      -0.00028428      -0.01153308 </v>
   <v>      -0.00008183       0.00012068      -0.00797301 </v>
   <v>       0.00002062      -0.00003788      -0.00448096 </v>
   <v>      -0.00017367      -0.00002962      -0.00656909 </v>
   <v>       0.00012185      -0.00002551      -0.00571041 </v>
  </varray>
  <energy>
   <i name="e_fr_energy">    -82.93808732 </i>
   <i name="e_wo_entrp">    -82.92010792 </i>
   <i name="e_0_energy">     -0.05393821 </i>
  </energy>
  <time name="totalsc">  161.25  161.50</time>
  <eigenvalues>
   <array>
    <dimension dim="1">band</dimension>
    <dimension dim="2">kpoint</dimension>
    <dimension dim="3">spin</dimension>
    <field>eigene</field>
    <field>occ</field>
    <set>
     <set comment="spin 1">
      <set comment="kpoint 1">
       <r>   -9.2189    1.0000 </r>
       <r>   -7.9267    1.0000 </r>
       <r>   -6.8379    1.0000 </r>
       <r>   -6.7413    1.0000 </r>
       <r>   -6.4946    1.0000 </r>
       <r>   -6.4945    1.0000 </r>
       <r>   -6.4945    1.0000 </r>
       <r>   -6.3290    1.0000 </r>
       <r>   -6.3290    1.0000 </r>
       <r>   -6.3289    1.0000 </r>
       <r>   -5.8923    1.0000 </r>
       <r>   -5.8923    1.0000 </r>
       <r>   -5.8922    1.0000 </r>
       <r>   -5.6649    1.0000 </r>
       <r>   -5.6648    1.0000 </r>
       <r>   -5.6648    1.0000 </r>
       <r>   -5.5845    1.0000 </r>
       <r>   -5.5843    1.0000 </r>
       <r>   -5.5843    1.0000 </r>
       <r>   -4.7729    1.0000 </r>
       <r>   -4.7729    1.0000 </r>
       <r>   -4.7729    1.0000 </r>
       <r>   -3.8215    1.0000 </r>
       <r>   -3.8214    1.0000 </r>
       <r>   -3.8214    1.0000 </r>
       <r>   -3.7115    1.0000 </r>
       <r>   -3.7114    1.0000 </r>
       <r>   -3.7114    1.0000 </r>
       <r>   -3.6561    1.0000 </r>
       <r>   -3.5271    1.0000 </r>
       <r>   -3.5271    1.0000 </r>
       <r>   -3.5077    1.0000 </r>
       <r>   -3.4241    1.0000 </r>
       <r>   -3.4241    1.0000 </r>
       <r>   -3.2619    1.0000 </r>
       <r>   -3.2619    1.0000 </r>
       <r>   -3.2619    1.0000 </r>
       <r>   -3.0640    1.0000 </r>
       <r>   -3.0640    1.0000 </r>
       <r>   -2.9696    1.0000 </r>
       <r>   -2.9696    1.0000 </r>
       <r>   -2.6786    1.0000 </r>
       <r>   -2.6309    1.0000 </r>
       <r>   -2.6308    1.0000 </r>
       <r>   -2.6308    1.0000 </r>
       <r>   -2.1896    1.0000 </r>
       <r>   -2.1895    1.0000 </r>
       <r>   -2.1894    1.0000 </r>
       <r>   -2.0768    1.0000 </r>
       <r>   -2.0767    1.0000 </r>
       <r>   -2.0767    1.0000 </r>
       <r>   -1.6078    1.0000 </r>
       <r>   -1.6078    1.0000 </r>
       <r>   -1.2781    1.0000 </r>
       <r>   -1.2781    1.0000 </r>
       <r>   -1.0356    1.0000 </r>
       <r>   -1.0356    1.0000 </r>
       <r>   -1.0355    1.0000 </r>
       <r>   -0.8281    1.0000 </r>
       <r>   -0.8281    1.0000 </r>
       <r>   -0.8280    1.0000 </r>
       <r>   -0.6145    1.0025 </r>
       <r>   -0.6145    1.0025 </r>
       <r>   -0.3877    1.0352 </r>
       <r>   -0.3256    1.0071 </r>
       <r>   -0.3255    1.0071 </r>
       <r>   -0.3255    1.0071 </r>
       <r>   -0.2696    0.9185 </r>
       <r>   -0.2695    0.9184 </r>
       <r>   -0.2695    0.9183 </r>
       <r>   -0.1693    0.5803 </r>
       <r>   -0.1693    0.5802 </r>
       <r>   -0.0775    0.2136 </r>
       <r>   -0.0775    0.2135 </r>
       <r>   -0.0775    0.2135 </r>
       <r>    0.0859   -0.0351 </r>
       <r>    0.0859   -0.0351 </r>
       <r>    0.0860   -0.0351 </r>
       <r>    0.2997   -0.0033 </r>
       <r>    0.2998   -0.0033 </r>
       <r>    0.2998   -0.0033 </r>
       <r>    0.3359   -0.0016 </r>
       <r>    0.3361   -0.0016 </r>
       <r>    0.3361   -0.0016 </r>
       <r>    0.6614   -0.0000 </r>
       <r>    0.8711   -0.0000 </r>
       <r>    0.8711   -0.0000 </r>
       <r>    0.8712   -0.0000 </r>
       <r>    2.2457   -0.0000 </r>
       <r>    2.2457   -0.0000 </r>
       <r>    2.2458   -0.0000 </r>
       <r>    2.5442   -0.0000 </r>
       <r>    2.5442   -0.0000 </r>
       <r>    2.5442   -0.0000 </r>
       <r>    2.8332   -0.0000 </r>
       <r>    2.8332   -0.0000 </r>
      </set>
      <set comment="kpoint 2">
       <r>   -8.8876    1.0000 </r>
       <r>   -7.6019    1.0000 </r>
       <r>   -6.5287    1.0000 </r>
       <r>   -6.5070    1.0000 </r>
       <r>   -6.4349    1.0000 </r>
       <r>   -6.2706    1.0000 </r>
       <r>   -6.2706    1.0000 </r>
       <r>   -6.2311    1.0000 </r>
       <r>   -6.0896    1.0000 </r>
       <r>   -6.0896    1.0000 </r>
       <r>   -5.7535    1.0000 </r>
       <r>   -5.7247    1.0000 </r>
       <r>   -5.7246    1.0000 </r>
       <r>   -5.6515    1.0000 </r>
       <r>   -5.4302    1.0000 </r>
       <r>   -5.4279    1.0000 </r>
       <r>   -5.4279    1.0000 </r>
       <r>   -5.2907    1.0000 </r>
       <r>   -5.2906    1.0000 </r>
       <r>   -4.6855    1.0000 </r>
       <r>   -4.6854    1.0000 </r>
       <r>   -4.6692    1.0000 </r>
       <r>   -3.9829    1.0000 </r>
       <r>   -3.9828    1.0000 </r>
       <r>   -3.9077    1.0000 </r>
       <r>   -3.8077    1.0000 </r>
       <r>   -3.7831    1.0000 </r>
       <r>   -3.7004    1.0000 </r>
       <r>   -3.5941    1.0000 </r>
       <r>   -3.5941    1.0000 </r>
       <r>   -3.5351    1.0000 </r>
       <r>   -3.2890    1.0000 </r>
       <r>   -3.2632    1.0000 </r>
       <r>   -3.2457    1.0000 </r>
       <r>   -3.2366    1.0000 </r>
       <r>   -3.2366    1.0000 </r>
       <r>   -3.2276    1.0000 </r>
       <r>   -3.1855    1.0000 </r>
       <r>   -3.0754    1.0000 </r>
       <r>   -2.9682    1.0000 </r>
       <r>   -2.8966    1.0000 </r>
       <r>   -2.8965    1.0000 </r>
       <r>   -2.8699    1.0000 </r>
       <r>   -2.8459    1.0000 </r>
       <r>   -2.7412    1.0000 </r>
       <r>   -2.6627    1.0000 </r>
       <r>   -2.6626    1.0000 </r>
       <r>   -2.3411    1.0000 </r>
       <r>   -2.1526    1.0000 </r>
       <r>   -1.9848    1.0000 </r>
       <r>   -1.9848    1.0000 </r>
       <r>   -1.7881    1.0000 </r>
       <r>   -1.7533    1.0000 </r>
       <r>   -1.4782    1.0000 </r>
       <r>   -1.4089    1.0000 </r>
       <r>   -1.4088    1.0000 </r>
       <r>   -1.2674    1.0000 </r>
       <r>   -1.2589    1.0000 </r>
       <r>   -1.2427    1.0000 </r>
       <r>   -1.2426    1.0000 </r>
       <r>   -1.2067    1.0000 </r>
       <r>   -1.0865    1.0000 </r>
       <r>   -1.0779    1.0000 </r>
       <r>   -1.0778    1.0000 </r>
       <r>   -0.8491    1.0000 </r>
       <r>   -0.6868    1.0005 </r>
       <r>   -0.6208    1.0022 </r>
       <r>   -0.5950    1.0036 </r>
       <r>   -0.5950    1.0036 </r>
       <r>   -0.4814    1.0205 </r>
       <r>   -0.4814    1.0205 </r>
       <r>   -0.4809    1.0206 </r>
       <r>   -0.4605    1.0253 </r>
       <r>   -0.4147    1.0342 </r>
       <r>   -0.3303    1.0114 </r>
       <r>   -0.3303    1.0114 </r>
       <r>   -0.1598    0.5403 </r>
       <r>   -0.1535    0.5136 </r>
       <r>   -0.1199    0.3732 </r>
       <r>   -0.1199    0.3731 </r>
       <r>   -0.0918    0.2639 </r>
       <r>    0.0533   -0.0269 </r>
       <r>    0.1284   -0.0320 </r>
       <r>    0.1284   -0.0320 </r>
       <r>    0.1358   -0.0306 </r>
       <r>    0.6074   -0.0000 </r>
       <r>    1.4475   -0.0000 </r>
       <r>    1.4973   -0.0000 </r>
       <r>    1.4973   -0.0000 </r>
       <r>    1.9170   -0.0000 </r>
       <r>    2.0515   -0.0000 </r>
       <r>    2.0515   -0.0000 </r>
       <r>    2.9194   -0.0000 </r>
       <r>    2.9195   -0.0000 </r>
       <r>    3.8644   -0.0000 </r>
       <r>    4.3283   -0.0000 </r>
      </set>
      <set comment="kpoint 3">
       <r>   -7.9956    1.0000 </r>
       <r>   -6.9698    1.0000 </r>
       <r>   -6.7955    1.0000 </r>
       <r>   -6.1950    1.0000 </r>
       <r>   -5.8156    1.0000 </r>
       <r>   -5.7574    1.0000 </r>
       <r>   -5.7573    1.0000 </r>
       <r>   -5.6542    1.0000 </r>
       <r>   -5.6531    1.0000 </r>
       <r>   -5.6190    1.0000 </r>
       <r>   -5.6190    1.0000 </r>
       <r>   -5.3116    1.0000 </r>
       <r>   -5.2190    1.0000 </r>
       <r>   -5.2190    1.0000 </r>
       <r>   -5.1126    1.0000 </r>
       <r>   -5.0028    1.0000 </r>
       <r>   -5.0027    1.0000 </r>
       <r>   -4.6306    1.0000 </r>
       <r>   -4.6305    1.0000 </r>
       <r>   -4.5128    1.0000 </r>
       <r>   -4.4232    1.0000 </r>
       <r>   -4.4232    1.0000 </r>
       <r>   -4.3896    1.0000 </r>
       <r>   -4.2077    1.0000 </r>
       <r>   -4.2076    1.0000 </r>
       <r>   -4.1321    1.0000 </r>
       <r>   -4.0488    1.0000 </r>
       <r>   -3.8005    1.0000 </r>
       <r>   -3.8005    1.0000 </r>
       <r>   -3.7979    1.0000 </r>
       <r>   -3.6629    1.0000 </r>
       <r>   -3.5699    1.0000 </r>
       <r>   -3.5699    1.0000 </r>
       <r>   -3.4680    1.0000 </r>
       <r>   -3.3635    1.0000 </r>
       <r>   -3.2654    1.0000 </r>
       <r>   -3.2149    1.0000 </r>
       <r>   -3.0630    1.0000 </r>
       <r>   -3.0629    1.0000 </r>
       <r>   -3.0010    1.0000 </r>
       <r>   -2.9394    1.0000 </r>
       <r>   -2.8609    1.0000 </r>
       <r>   -2.8608    1.0000 </r>
       <r>   -2.8392    1.0000 </r>
       <r>   -2.7868    1.0000 </r>
       <r>   -2.7029    1.0000 </r>
       <r>   -2.7028    1.0000 </r>
       <r>   -2.6364    1.0000 </r>
       <r>   -2.5289    1.0000 </r>
       <r>   -2.5276    1.0000 </r>
       <r>   -2.5276    1.0000 </r>
       <r>   -2.4288    1.0000 </r>
       <r>   -2.3664    1.0000 </r>
       <r>   -2.3072    1.0000 </r>
       <r>   -2.1323    1.0000 </r>
       <r>   -2.1204    1.0000 </r>
       <r>   -2.1053    1.0000 </r>
       <r>   -2.1052    1.0000 </r>
       <r>   -1.9505    1.0000 </r>
       <r>   -1.7426    1.0000 </r>
       <r>   -1.6333    1.0000 </r>
       <r>   -1.5305    1.0000 </r>
       <r>   -1.5192    1.0000 </r>
       <r>   -1.5192    1.0000 </r>
       <r>   -1.4108    1.0000 </r>
       <r>   -1.3622    1.0000 </r>
       <r>   -1.3622    1.0000 </r>
       <r>   -1.2515    1.0000 </r>
       <r>   -1.2406    1.0000 </r>
       <r>   -1.1590    1.0000 </r>
       <r>   -1.1589    1.0000 </r>
       <r>   -1.0829    1.0000 </r>
       <r>   -0.9909    1.0000 </r>
       <r>   -0.9044    1.0000 </r>
       <r>   -0.6442    1.0013 </r>
       <r>   -0.6288    1.0018 </r>
       <r>   -0.4331    1.0312 </r>
       <r>   -0.4331    1.0312 </r>
       <r>   -0.1561    0.5247 </r>
       <r>   -0.1253    0.3952 </r>
       <r>   -0.1253    0.3951 </r>
       <r>   -0.1203    0.3748 </r>
       <r>   -0.0855    0.2411 </r>
       <r>    0.1318   -0.0314 </r>
       <r>    0.1318   -0.0314 </r>
       <r>    0.5093   -0.0000 </r>
       <r>    1.7006   -0.0000 </r>
       <r>    1.7455   -0.0000 </r>
       <r>    1.7455   -0.0000 </r>
       <r>    2.2444   -0.0000 </r>
       <r>    2.2445   -0.0000 </r>
       <r>    2.7170   -0.0000 </r>
       <r>    3.3758   -0.0000 </r>
       <r>    3.3759   -0.0000 </r>
       <r>    3.6594   -0.0000 </r>
       <r>    5.2630   -0.0000 </r>
      </set>
      <set comment="kpoint 4">
       <r>   -8.8876    1.0000 </r>
       <r>   -7.6019    1.0000 </r>
       <r>   -6.5287    1.0000 </r>
       <r>   -6.5070    1.0000 </r>
       <r>   -6.4349    1.0000 </r>
       <r>   -6.2706    1.0000 </r>
       <r>   -6.2706    1.0000 </r>
       <r>   -6.2311    1.0000 </r>
       <r>   -6.0897    1.0000 </r>
       <r>   -6.0896    1.0000 </r>
       <r>   -5.7535    1.0000 </r>
       <r>   -5.7246    1.0000 </r>
       <r>   -5.7246    1.0000 </r>
       <r>   -5.6515    1.0000 </r>
       <r>   -5.4302    1.0000 </r>
       <r>   -5.4279    1.0000 </r>
       <r>   -5.4279    1.0000 </r>
       <r>   -5.2907    1.0000 </r>
       <r>   -5.2907    1.0000 </r>
       <r>   -4.6855    1.0000 </r>
       <r>   -4.6855    1.0000 </r>
       <r>   -4.6692    1.0000 </r>
       <r>   -3.9828    1.0000 </r>
       <r>   -3.9828    1.0000 </r>
       <r>   -3.9077    1.0000 </r>
       <r>   -3.8077    1.0000 </r>
       <r>   -3.7831    1.0000 </r>
       <r>   -3.7004    1.0000 </r>
       <r>   -3.5941    1.0000 </r>
       <r>   -3.5941    1.0000 </r>
       <r>   -3.5351    1.0000 </r>
       <r>   -3.2890    1.0000 </r>
       <r>   -3.2632    1.0000 </r>
       <r>   -3.2457    1.0000 </r>
       <r>   -3.2367    1.0000 </r>
       <r>   -3.2366    1.0000 </r>
       <r>   -3.2276    1.0000 </r>
       <r>   -3.1855    1.0000 </r>
       <r>   -3.0754    1.0000 </r>
       <r>   -2.9682    1.0000 </r>
       <r>   -2.8965    1.0000 </r>
       <r>   -2.8965    1.0000 </r>
       <r>   -2.8699    1.0000 </r>
       <r>   -2.8459    1.0000 </r>
       <r>   -2.7412    1.0000 </r>
       <r>   -2.6627    1.0000 </r>
       <r>   -2.6625    1.0000 </r>
       <r>   -2.3411    1.0000 </r>
       <r>   -2.1526    1.0000 </r>
       <r>   -1.9848    1.0000 </r>
       <r>   -1.9848    1.0000 </r>
       <r>   -1.7881    1.0000 </r>
       <r>   -1.7533    1.0000 </r>
       <r>   -1.4782    1.0000 </r>
       <r>   -1.4089    1.0000 </r>
       <r>   -1.4088    1.0000 </r>
       <r>   -1.2674    1.0000 </r>
       <r>   -1.2590    1.0000 </r>
       <r>   -1.2427    1.0000 </r>
       <r>   -1.2426    1.0000 </r>
       <r>   -1.2066    1.0000 </r>
       <r>   -1.0865    1.0000 </r>
       <r>   -1.0779    1.0000 </r>
       <r>   -1.0778    1.0000 </r>
       <r>   -0.8491    1.0000 </r>
       <r>   -0.6868    1.0005 </r>
       <r>   -0.6208    1.0022 </r>
       <r>   -0.5950    1.0036 </r>
       <r>   -0.5950    1.0036 </r>
       <r>   -0.4814    1.0205 </r>
       <r>   -0.4814    1.0205 </r>
       <r>   -0.4809    1.0206 </r>
       <r>   -0.4605    1.0253 </r>
       <r>   -0.4147    1.0342 </r>
       <r>   -0.3303    1.0115 </r>
       <r>   -0.3302    1.0114 </r>
       <r>   -0.1598    0.5403 </r>
       <r>   -0.1535    0.5137 </r>
       <r>   -0.1199    0.3732 </r>
       <r>   -0.1199    0.3731 </r>
       <r>   -0.0918    0.2639 </r>
       <r>    0.0533   -0.0269 </r>
       <r>    0.1283   -0.0320 </r>
       <r>    0.1284   -0.0320 </r>
       <r>    0.1358   -0.0306 </r>
       <r>    0.6074   -0.0000 </r>
       <r>    1.4475   -0.0000 </r>
       <r>    1.4973   -0.0000 </r>
       <r>    1.4973   -0.0000 </r>
       <r>    1.9170   -0.0000 </r>
       <r>    2.0514   -0.0000 </r>
       <r>    2.0515   -0.0000 </r>
       <r>    2.9194   -0.0000 </r>
       <r>    2.9195   -0.0000 </r>
       <r>    3.8644   -0.0000 </r>
       <r>    4.3283   -0.0000 </r>
      </set>
      <set comment="kpoint 5">
       <r>   -8.8876    1.0000 </r>
       <r>   -7.6019    1.0000 </r>
       <r>   -6.5287    1.0000 </r>
       <r>   -6.5070    1.0000 </r>
       <r>   -6.4349    1.0000 </r>
       <r>   -6.2706    1.0000 </r>
       <r>   -6.2706    1.0000 </r>
       <r>   -6.2311    1.0000 </r>
       <r>   -6.0897    1.0000 </r>
       <r>   -6.0896    1.0000 </r>
       <r>   -5.7535    1.0000 </r>
       <r>   -5.7246    1.0000 </r>
       <r>   -5.7246    1.0000 </r>
       <r>   -5.6515    1.0000 </r>
       <r>   -5.4302    1.0000 </r>
       <r>   -5.4280    1.0000 </r>
       <r>   -5.4279    1.0000 </r>
       <r>   -5.2907    1.0000 </r>
       <r>   -5.2906    1.0000 </r>
       <r>   -4.6855    1.0000 </r>
       <r>   -4.6854    1.0000 </r>
       <r>   -4.6692    1.0000 </r>
       <r>   -3.9829    1.0000 </r>
       <r>   -3.9828    1.0000 </r>
       <r>   -3.9077    1.0000 </r>
       <r>   -3.8077    1.0000 </r>
       <r>   -3.7831    1.0000 </r>
       <r>   -3.7004    1.0000 </r>
       <r>   -3.5941    1.0000 </r>
       <r>   -3.5941    1.0000 </r>
       <r>   -3.5351    1.0000 </r>
       <r>   -3.2890    1.0000 </r>
       <r>   -3.2632    1.0000 </r>
       <r>   -3.2457    1.0000 </r>
       <r>   -3.2367    1.0000 </r>
       <r>   -3.2366    1.0000 </r>
       <r>   -3.2276    1.0000 </r>
       <r>   -3.1855    1.0000 </r>
       <r>   -3.0754    1.0000 </r>
       <r>   -2.9682    1.0000 </r>
       <r>   -2.8965    1.0000 </r>
       <r>   -2.8965    1.0000 </r>
       <r>   -2.8699    1.0000 </r>
       <r>   -2.8459    1.0000 </r>
       <r>   -2.7412    1.0000 </r>
       <r>   -2.6626    1.0000 </r>
       <r>   -2.6626    1.0000 </r>
       <r>   -2.3411    1.0000 </r>
       <r>   -2.1526    1.0000 </r>
       <r>   -1.9848    1.0000 </r>
       <r>   -1.9848    1.0000 </r>
       <r>   -1.7881    1.0000 </r>
       <r>   -1.7533    1.0000 </r>
       <r>   -1.4782    1.0000 </r>
       <r>   -1.4088    1.0000 </r>
       <r>   -1.4088    1.0000 </r>
       <r>   -1.2674    1.0000 </r>
       <r>   -1.2590    1.0000 </r>
       <r>   -1.2426    1.0000 </r>
       <r>   -1.2426    1.0000 </r>
       <r>   -1.2066    1.0000 </r>
       <r>   -1.0865    1.0000 </r>
       <r>   -1.0778    1.0000 </r>
       <r>   -1.0778    1.0000 </r>
       <r>   -0.8491    1.0000 </r>
       <r>   -0.6868    1.0005 </r>
       <r>   -0.6208    1.0022 </r>
       <r>   -0.5950    1.0036 </r>
       <r>   -0.5950    1.0036 </r>
       <r>   -0.4814    1.0205 </r>
       <r>   -0.4814    1.0205 </r>
       <r>   -0.4809    1.0206 </r>
       <r>   -0.4605    1.0253 </r>
       <r>   -0.4147    1.0342 </r>
       <r>   -0.3303    1.0114 </r>
       <r>   -0.3303    1.0114 </r>
       <r>   -0.1598    0.5403 </r>
       <r>   -0.1535    0.5137 </r>
       <r>   -0.1199    0.3732 </r>
       <r>   -0.1199    0.3731 </r>
       <r>   -0.0918    0.2639 </r>
       <r>    0.0533   -0.0269 </r>
       <r>    0.1283   -0.0320 </r>
       <r>    0.1284   -0.0320 </r>
       <r>    0.1358   -0.0306 </r>
       <r>    0.6074   -0.0000 </r>
       <r>    1.4475   -0.0000 </r>
       <r>    1.4973   -0.0000 </r>
       <r>    1.4973   -0.0000 </r>
       <r>    1.9170   -0.0000 </r>
       <r>    2.0515   -0.0000 </r>
       <r>    2.0515   -0.0000 </r>
       <r>    2.9194   -0.0000 </r>
       <r>    2.9195   -0.0000 </r>
       <r>    3.8644   -0.0000 </r>
       <r>    4.3283   -0.0000 </r>
      </set>
      <set comment="kpoint 6">
       <r>   -8.2675    1.0000 </r>
       <r>   -7.0174    1.0000 </r>
       <r>   -6.4232    1.0000 </r>
       <r>   -6.4231    1.0000 </r>
       <r>   -5.9460    1.0000 </r>
       <r>   -5.9459    1.0000 </r>
       <r>   -5.9226    1.0000 </r>
       <r>   -5.8941    1.0000 </r>
       <r>   -5.7064    1.0000 </r>
       <r>   -5.6958    1.0000 </r>
       <r>   -5.5259    1.0000 </r>
       <r>   -5.5259    1.0000 </r>
       <r>   -5.3631    1.0000 </r>
       <r>   -5.3630    1.0000 </r>
       <r>   -5.2860    1.0000 </r>
       <r>   -5.0284    1.0000 </r>
       <r>   -5.0283    1.0000 </r>
       <r>   -4.8712    1.0000 </r>
       <r>   -4.7660    1.0000 </r>
       <r>   -4.5277    1.0000 </r>
       <r>   -4.5276    1.0000 </r>
       <r>   -4.4650    1.0000 </r>
       <r>   -4.3517    1.0000 </r>
       <r>   -4.2293    1.0000 </r>
       <r>   -4.1432    1.0000 </r>
       <r>   -4.0379    1.0000 </r>
       <r>   -3.9029    1.0000 </r>
       <r>   -3.9028    1.0000 </r>
       <r>   -3.6421    1.0000 </r>
       <r>   -3.6287    1.0000 </r>
       <r>   -3.6285    1.0000 </r>
       <r>   -3.5234    1.0000 </r>
       <r>   -3.3691    1.0000 </r>
       <r>   -3.3690    1.0000 </r>
       <r>   -3.3434    1.0000 </r>
       <r>   -3.3406    1.0000 </r>
       <r>   -3.2419    1.0000 </r>
       <r>   -3.1465    1.0000 </r>
       <r>   -3.1463    1.0000 </r>
       <r>   -3.1045    1.0000 </r>
       <r>   -3.0828    1.0000 </r>
       <r>   -2.9567    1.0000 </r>
       <r>   -2.9148    1.0000 </r>
       <r>   -2.7989    1.0000 </r>
       <r>   -2.7612    1.0000 </r>
       <r>   -2.7611    1.0000 </r>
       <r>   -2.4670    1.0000 </r>
       <r>   -2.4668    1.0000 </r>
       <r>   -2.3842    1.0000 </r>
       <r>   -2.3013    1.0000 </r>
       <r>   -2.3011    1.0000 </r>
       <r>   -2.2854    1.0000 </r>
       <r>   -2.1640    1.0000 </r>
       <r>   -2.1515    1.0000 </r>
       <r>   -2.0633    1.0000 </r>
       <r>   -1.9949    1.0000 </r>
       <r>   -1.9948    1.0000 </r>
       <r>   -1.9847    1.0000 </r>
       <r>   -1.9470    1.0000 </r>
       <r>   -1.8770    1.0000 </r>
       <r>   -1.4703    1.0000 </r>
       <r>   -1.4699    1.0000 </r>
       <r>   -1.4404    1.0000 </r>
       <r>   -1.3905    1.0000 </r>
       <r>   -1.2626    1.0000 </r>
       <r>   -1.2623    1.0000 </r>
       <r>   -1.0609    1.0000 </r>
       <r>   -1.0072    1.0000 </r>
       <r>   -1.0068    1.0000 </r>
       <r>   -0.9843    1.0000 </r>
       <r>   -0.9460    1.0000 </r>
       <r>   -0.6981    1.0004 </r>
       <r>   -0.4986    1.0168 </r>
       <r>   -0.4985    1.0168 </r>
       <r>   -0.4191    1.0336 </r>
       <r>   -0.4190    1.0336 </r>
       <r>   -0.4004    1.0354 </r>
       <r>   -0.3252    1.0068 </r>
       <r>   -0.2915    0.9620 </r>
       <r>   -0.1275    0.4044 </r>
       <r>   -0.1151    0.3540 </r>
       <r>   -0.1150    0.3532 </r>
       <r>   -0.0519    0.1343 </r>
       <r>    0.1071   -0.0349 </r>
       <r>    0.1071   -0.0349 </r>
       <r>    0.2507   -0.0079 </r>
       <r>    0.2508   -0.0079 </r>
       <r>    1.3622   -0.0000 </r>
       <r>    1.3624   -0.0000 </r>
       <r>    1.4326   -0.0000 </r>
       <r>    3.2054   -0.0000 </r>
       <r>    3.4600   -0.0000 </r>
       <r>    3.5642   -0.0000 </r>
       <r>    3.5645   -0.0000 </r>
       <r>    3.7046   -0.0000 </r>
       <r>    4.2747   -0.0000 </r>
      </set>
      <set comment="kpoint 7">
       <r>   -7.2356    1.0000 </r>
       <r>   -7.2350    1.0000 </r>
       <r>   -6.2480    1.0000 </r>
       <r>   -6.2087    1.0000 </r>
       <r>   -6.2085    1.0000 </r>
       <r>   -5.6830    1.0000 </r>
       <r>   -5.4083    1.0000 </r>
       <r>   -5.4076    1.0000 </r>
       <r>   -5.3681    1.0000 </r>
       <r>   -5.2769    1.0000 </r>
       <r>   -5.1858    1.0000 </r>
       <r>   -5.1175    1.0000 </r>
       <r>   -5.1173    1.0000 </r>
       <r>   -5.0097    1.0000 </r>
       <r>   -4.8021    1.0000 </r>
       <r>   -4.7944    1.0000 </r>
       <r>   -4.7456    1.0000 </r>
       <r>   -4.7452    1.0000 </r>
       <r>   -4.6204    1.0000 </r>
       <r>   -4.5617    1.0000 </r>
       <r>   -4.3951    1.0000 </r>
       <r>   -4.3950    1.0000 </r>
       <r>   -4.3758    1.0000 </r>
       <r>   -4.3654    1.0000 </r>
       <r>   -4.2482    1.0000 </r>
       <r>   -4.2481    1.0000 </r>
       <r>   -4.2386    1.0000 </r>
       <r>   -4.1707    1.0000 </r>
       <r>   -3.9270    1.0000 </r>
       <r>   -3.6964    1.0000 </r>
       <r>   -3.6964    1.0000 </r>
       <r>   -3.6772    1.0000 </r>
       <r>   -3.6074    1.0000 </r>
       <r>   -3.5658    1.0000 </r>
       <r>   -3.5555    1.0000 </r>
       <r>   -3.5552    1.0000 </r>
       <r>   -3.4914    1.0000 </r>
       <r>   -3.4563    1.0000 </r>
       <r>   -3.3954    1.0000 </r>
       <r>   -3.3954    1.0000 </r>
       <r>   -3.1280    1.0000 </r>
       <r>   -3.1276    1.0000 </r>
       <r>   -3.0232    1.0000 </r>
       <r>   -2.8788    1.0000 </r>
       <r>   -2.8549    1.0000 </r>
       <r>   -2.8544    1.0000 </r>
       <r>   -2.7906    1.0000 </r>
       <r>   -2.7768    1.0000 </r>
       <r>   -2.7692    1.0000 </r>
       <r>   -2.7319    1.0000 </r>
       <r>   -2.5168    1.0000 </r>
       <r>   -2.5164    1.0000 </r>
       <r>   -2.2076    1.0000 </r>
       <r>   -2.1754    1.0000 </r>
       <r>   -2.1752    1.0000 </r>
       <r>   -2.0638    1.0000 </r>
       <r>   -2.0637    1.0000 </r>
       <r>   -2.0619    1.0000 </r>
       <r>   -1.8148    1.0000 </r>
       <r>   -1.8144    1.0000 </r>
       <r>   -1.7968    1.0000 </r>
       <r>   -1.6304    1.0000 </r>
       <r>   -1.6067    1.0000 </r>
       <r>   -1.4212    1.0000 </r>
       <r>   -1.3575    1.0000 </r>
       <r>   -1.3574    1.0000 </r>
       <r>   -1.2396    1.0000 </r>
       <r>   -1.1993    1.0000 </r>
       <r>   -1.1990    1.0000 </r>
       <r>   -1.0857    1.0000 </r>
       <r>   -1.0856    1.0000 </r>
       <r>   -0.8774    1.0000 </r>
       <r>   -0.8721    1.0000 </r>
       <r>   -0.8718    1.0000 </r>
       <r>   -0.7284    1.0002 </r>
       <r>   -0.7283    1.0002 </r>
       <r>   -0.5773    1.0050 </r>
       <r>   -0.4325    1.0314 </r>
       <r>   -0.3575    1.0285 </r>
       <r>   -0.3508    1.0254 </r>
       <r>   -0.3162    0.9973 </r>
       <r>   -0.3157    0.9967 </r>
       <r>   -0.1571    0.5291 </r>
       <r>   -0.1539    0.5156 </r>
       <r>    0.2579   -0.0070 </r>
       <r>    0.3458   -0.0013 </r>
       <r>    0.4162   -0.0002 </r>
       <r>    0.4162   -0.0002 </r>
       <r>    1.4444   -0.0000 </r>
       <r>    2.4134   -0.0000 </r>
       <r>    2.4137   -0.0000 </r>
       <r>    3.4562   -0.0000 </r>
       <r>    3.5255   -0.0000 </r>
       <r>    4.4392   -0.0000 </r>
       <r>    4.8521   -0.0000 </r>
       <r>    4.8522   -0.0000 </r>
      </set>
      <set comment="kpoint 8">
       <r>   -8.2675    1.0000 </r>
       <r>   -7.0174    1.0000 </r>
       <r>   -6.4232    1.0000 </r>
       <r>   -6.4231    1.0000 </r>
       <r>   -5.9460    1.0000 </r>
       <r>   -5.9459    1.0000 </r>
       <r>   -5.9226    1.0000 </r>
       <r>   -5.8942    1.0000 </r>
       <r>   -5.7063    1.0000 </r>
       <r>   -5.6958    1.0000 </r>
       <r>   -5.5259    1.0000 </r>
       <r>   -5.5259    1.0000 </r>
       <r>   -5.3631    1.0000 </r>
       <r>   -5.3630    1.0000 </r>
       <r>   -5.2860    1.0000 </r>
       <r>   -5.0284    1.0000 </r>
       <r>   -5.0283    1.0000 </r>
       <r>   -4.8712    1.0000 </r>
       <r>   -4.7660    1.0000 </r>
       <r>   -4.5277    1.0000 </r>
       <r>   -4.5276    1.0000 </r>
       <r>   -4.4650    1.0000 </r>
       <r>   -4.3517    1.0000 </r>
       <r>   -4.2293    1.0000 </r>
       <r>   -4.1432    1.0000 </r>
       <r>   -4.0380    1.0000 </r>
       <r>   -3.9028    1.0000 </r>
       <r>   -3.9028    1.0000 </r>
       <r>   -3.6421    1.0000 </r>
       <r>   -3.6286    1.0000 </r>
       <r>   -3.6285    1.0000 </r>
       <r>   -3.5234    1.0000 </r>
       <r>   -3.3691    1.0000 </r>
       <r>   -3.3690    1.0000 </r>
       <r>   -3.3434    1.0000 </r>
       <r>   -3.3406    1.0000 </r>
       <r>   -3.2419    1.0000 </r>
       <r>   -3.1464    1.0000 </r>
       <r>   -3.1464    1.0000 </r>
       <r>   -3.1045    1.0000 </r>
       <r>   -3.0828    1.0000 </r>
       <r>   -2.9567    1.0000 </r>
       <r>   -2.9148    1.0000 </r>
       <r>   -2.7989    1.0000 </r>
       <r>   -2.7612    1.0000 </r>
       <r>   -2.7611    1.0000 </r>
       <r>   -2.4670    1.0000 </r>
       <r>   -2.4668    1.0000 </r>
       <r>   -2.3842    1.0000 </r>
       <r>   -2.3013    1.0000 </r>
       <r>   -2.3011    1.0000 </r>
       <r>   -2.2854    1.0000 </r>
       <r>   -2.1640    1.0000 </r>
       <r>   -2.1515    1.0000 </r>
       <r>   -2.0633    1.0000 </r>
       <r>   -1.9949    1.0000 </r>
       <r>   -1.9948    1.0000 </r>
       <r>   -1.9847    1.0000 </r>
       <r>   -1.9470    1.0000 </r>
       <r>   -1.8770    1.0000 </r>
       <r>   -1.4703    1.0000 </r>
       <r>   -1.4700    1.0000 </r>
       <r>   -1.4404    1.0000 </r>
       <r>   -1.3905    1.0000 </r>
       <r>   -1.2625    1.0000 </r>
       <r>   -1.2624    1.0000 </r>
       <r>   -1.0609    1.0000 </r>
       <r>   -1.0071    1.0000 </r>
       <r>   -1.0069    1.0000 </r>
       <r>   -0.9843    1.0000 </r>
       <r>   -0.9460    1.0000 </r>
       <r>   -0.6981    1.0004 </r>
       <r>   -0.4986    1.0168 </r>
       <r>   -0.4985    1.0168 </r>
       <r>   -0.4191    1.0336 </r>
       <r>   -0.4190    1.0336 </r>
       <r>   -0.4004    1.0354 </r>
       <r>   -0.3252    1.0068 </r>
       <r>   -0.2915    0.9620 </r>
       <r>   -0.1275    0.4044 </r>
       <r>   -0.1151    0.3538 </r>
       <r>   -0.1150    0.3534 </r>
       <r>   -0.0519    0.1344 </r>
       <r>    0.1071   -0.0349 </r>
       <r>    0.1071   -0.0349 </r>
       <r>    0.2507   -0.0079 </r>
       <r>    0.2508   -0.0079 </r>
       <r>    1.3623   -0.0000 </r>
       <r>    1.3624   -0.0000 </r>
       <r>    1.4326   -0.0000 </r>
       <r>    3.2054   -0.0000 </r>
       <r>    3.4600   -0.0000 </r>
       <r>    3.5643   -0.0000 </r>
       <r>    3.5644   -0.0000 </r>
       <r>    3.7046   -0.0000 </r>
       <r>    4.2747   -0.0000 </r>
      </set>
      <set comment="kpoint 9">
       <r>   -7.9956    1.0000 </r>
       <r>   -6.9698    1.0000 </r>
       <r>   -6.7955    1.0000 </r>
       <r>   -6.1950    1.0000 </r>
       <r>   -5.8156    1.0000 </r>
       <r>   -5.7574    1.0000 </r>
       <r>   -5.7573    1.0000 </r>
       <r>   -5.6542    1.0000 </r>
       <r>   -5.6531    1.0000 </r>
       <r>   -5.6190    1.0000 </r>
       <r>   -5.6190    1.0000 </r>
       <r>   -5.3116    1.0000 </r>
       <r>   -5.2190    1.0000 </r>
       <r>   -5.2190    1.0000 </r>
       <r>   -5.1126    1.0000 </r>
       <r>   -5.0027    1.0000 </r>
       <r>   -5.0027    1.0000 </r>
       <r>   -4.6306    1.0000 </r>
       <r>   -4.6305    1.0000 </r>
       <r>   -4.5128    1.0000 </r>
       <r>   -4.4232    1.0000 </r>
       <r>   -4.4232    1.0000 </r>
       <r>   -4.3895    1.0000 </r>
       <r>   -4.2077    1.0000 </r>
       <r>   -4.2076    1.0000 </r>
       <r>   -4.1321    1.0000 </r>
       <r>   -4.0488    1.0000 </r>
       <r>   -3.8006    1.0000 </r>
       <r>   -3.8005    1.0000 </r>
       <r>   -3.7979    1.0000 </r>
       <r>   -3.6629    1.0000 </r>
       <r>   -3.5699    1.0000 </r>
       <r>   -3.5698    1.0000 </r>
       <r>   -3.4680    1.0000 </r>
       <r>   -3.3635    1.0000 </r>
       <r>   -3.2654    1.0000 </r>
       <r>   -3.2149    1.0000 </r>
       <r>   -3.0631    1.0000 </r>
       <r>   -3.0629    1.0000 </r>
       <r>   -3.0010    1.0000 </r>
       <r>   -2.9394    1.0000 </r>
       <r>   -2.8609    1.0000 </r>
       <r>   -2.8607    1.0000 </r>
       <r>   -2.8392    1.0000 </r>
       <r>   -2.7868    1.0000 </r>
       <r>   -2.7029    1.0000 </r>
       <r>   -2.7028    1.0000 </r>
       <r>   -2.6364    1.0000 </r>
       <r>   -2.5289    1.0000 </r>
       <r>   -2.5276    1.0000 </r>
       <r>   -2.5276    1.0000 </r>
       <r>   -2.4288    1.0000 </r>
       <r>   -2.3663    1.0000 </r>
       <r>   -2.3072    1.0000 </r>
       <r>   -2.1323    1.0000 </r>
       <r>   -2.1204    1.0000 </r>
       <r>   -2.1052    1.0000 </r>
       <r>   -2.1051    1.0000 </r>
       <r>   -1.9505    1.0000 </r>
       <r>   -1.7426    1.0000 </r>
       <r>   -1.6333    1.0000 </r>
       <r>   -1.5305    1.0000 </r>
       <r>   -1.5192    1.0000 </r>
       <r>   -1.5192    1.0000 </r>
       <r>   -1.4108    1.0000 </r>
       <r>   -1.3622    1.0000 </r>
       <r>   -1.3621    1.0000 </r>
       <r>   -1.2515    1.0000 </r>
       <r>   -1.2406    1.0000 </r>
       <r>   -1.1590    1.0000 </r>
       <r>   -1.1589    1.0000 </r>
       <r>   -1.0829    1.0000 </r>
       <r>   -0.9909    1.0000 </r>
       <r>   -0.9044    1.0000 </r>
       <r>   -0.6443    1.0013 </r>
       <r>   -0.6288    1.0018 </r>
       <r>   -0.4332    1.0312 </r>
       <r>   -0.4330    1.0313 </r>
       <r>   -0.1561    0.5246 </r>
       <r>   -0.1253    0.3953 </r>
       <r>   -0.1253    0.3952 </r>
       <r>   -0.1203    0.3749 </r>
       <r>   -0.0855    0.2412 </r>
       <r>    0.1317   -0.0314 </r>
       <r>    0.1318   -0.0314 </r>
       <r>    0.5093   -0.0000 </r>
       <r>    1.7006   -0.0000 </r>
       <r>    1.7455   -0.0000 </r>
       <r>    1.7455   -0.0000 </r>
       <r>    2.2444   -0.0000 </r>
       <r>    2.2444   -0.0000 </r>
       <r>    2.7170   -0.0000 </r>
       <r>    3.3758   -0.0000 </r>
       <r>    3.3759   -0.0000 </r>
       <r>    3.6594   -0.0000 </r>
       <r>    5.2628   -0.0000 </r>
      </set>
      <set comment="kpoint 10">
       <r>   -8.2675    1.0000 </r>
       <r>   -7.0174    1.0000 </r>
       <r>   -6.4232    1.0000 </r>
       <r>   -6.4231    1.0000 </r>
       <r>   -5.9460    1.0000 </r>
       <r>   -5.9459    1.0000 </r>
       <r>   -5.9226    1.0000 </r>
       <r>   -5.8942    1.0000 </r>
       <r>   -5.7064    1.0000 </r>
       <r>   -5.6958    1.0000 </r>
       <r>   -5.5260    1.0000 </r>
       <r>   -5.5259    1.0000 </r>
       <r>   -5.3631    1.0000 </r>
       <r>   -5.3630    1.0000 </r>
       <r>   -5.2860    1.0000 </r>
       <r>   -5.0285    1.0000 </r>
       <r>   -5.0283    1.0000 </r>
       <r>   -4.8712    1.0000 </r>
       <r>   -4.7660    1.0000 </r>
       <r>   -4.5277    1.0000 </r>
       <r>   -4.5276    1.0000 </r>
       <r>   -4.4650    1.0000 </r>
       <r>   -4.3517    1.0000 </r>
       <r>   -4.2293    1.0000 </r>
       <r>   -4.1432    1.0000 </r>
       <r>   -4.0379    1.0000 </r>
       <r>   -3.9029    1.0000 </r>
       <r>   -3.9028    1.0000 </r>
       <r>   -3.6420    1.0000 </r>
       <r>   -3.6287    1.0000 </r>
       <r>   -3.6284    1.0000 </r>
       <r>   -3.5234    1.0000 </r>
       <r>   -3.3691    1.0000 </r>
       <r>   -3.3689    1.0000 </r>
       <r>   -3.3434    1.0000 </r>
       <r>   -3.3406    1.0000 </r>
       <r>   -3.2419    1.0000 </r>
       <r>   -3.1465    1.0000 </r>
       <r>   -3.1464    1.0000 </r>
       <r>   -3.1045    1.0000 </r>
       <r>   -3.0828    1.0000 </r>
       <r>   -2.9567    1.0000 </r>
       <r>   -2.9148    1.0000 </r>
       <r>   -2.7989    1.0000 </r>
       <r>   -2.7612    1.0000 </r>
       <r>   -2.7611    1.0000 </r>
       <r>   -2.4670    1.0000 </r>
       <r>   -2.4667    1.0000 </r>
       <r>   -2.3842    1.0000 </r>
       <r>   -2.3012    1.0000 </r>
       <r>   -2.3011    1.0000 </r>
       <r>   -2.2854    1.0000 </r>
       <r>   -2.1640    1.0000 </r>
       <r>   -2.1515    1.0000 </r>
       <r>   -2.0633    1.0000 </r>
       <r>   -1.9949    1.0000 </r>
       <r>   -1.9948    1.0000 </r>
       <r>   -1.9847    1.0000 </r>
       <r>   -1.9470    1.0000 </r>
       <r>   -1.8770    1.0000 </r>
       <r>   -1.4704    1.0000 </r>
       <r>   -1.4697    1.0000 </r>
       <r>   -1.4404    1.0000 </r>
       <r>   -1.3905    1.0000 </r>
       <r>   -1.2625    1.0000 </r>
       <r>   -1.2624    1.0000 </r>
       <r>   -1.0609    1.0000 </r>
       <r>   -1.0072    1.0000 </r>
       <r>   -1.0068    1.0000 </r>
       <r>   -0.9843    1.0000 </r>
       <r>   -0.9461    1.0000 </r>
       <r>   -0.6981    1.0004 </r>
       <r>   -0.4987    1.0168 </r>
       <r>   -0.4985    1.0168 </r>
       <r>   -0.4191    1.0336 </r>
       <r>   -0.4190    1.0336 </r>
       <r>   -0.4004    1.0354 </r>
       <r>   -0.3252    1.0068 </r>
       <r>   -0.2915    0.9621 </r>
       <r>   -0.1275    0.4044 </r>
       <r>   -0.1152    0.3540 </r>
       <r>   -0.1150    0.3533 </r>
       <r>   -0.0519    0.1344 </r>
       <r>    0.1071   -0.0349 </r>
       <r>    0.1071   -0.0349 </r>
       <r>    0.2507   -0.0079 </r>
       <r>    0.2508   -0.0079 </r>
       <r>    1.3623   -0.0000 </r>
       <r>    1.3624   -0.0000 </r>
       <r>    1.4326   -0.0000 </r>
       <r>    3.2054   -0.0000 </r>
       <r>    3.4600   -0.0000 </r>
       <r>    3.5642   -0.0000 </r>
       <r>    3.5645   -0.0000 </r>
       <r>    3.7046   -0.0000 </r>
       <r>    4.2747   -0.0000 </r>
      </set>
      <set comment="kpoint 11">
       <r>   -7.9956    1.0000 </r>
       <r>   -6.9698    1.0000 </r>
       <r>   -6.7955    1.0000 </r>
       <r>   -6.1950    1.0000 </r>
       <r>   -5.8156    1.0000 </r>
       <r>   -5.7574    1.0000 </r>
       <r>   -5.7573    1.0000 </r>
       <r>   -5.6542    1.0000 </r>
       <r>   -5.6531    1.0000 </r>
       <r>   -5.6190    1.0000 </r>
       <r>   -5.6189    1.0000 </r>
       <r>   -5.3116    1.0000 </r>
       <r>   -5.2190    1.0000 </r>
       <r>   -5.2189    1.0000 </r>
       <r>   -5.1126    1.0000 </r>
       <r>   -5.0028    1.0000 </r>
       <r>   -5.0027    1.0000 </r>
       <r>   -4.6306    1.0000 </r>
       <r>   -4.6305    1.0000 </r>
       <r>   -4.5128    1.0000 </r>
       <r>   -4.4232    1.0000 </r>
       <r>   -4.4232    1.0000 </r>
       <r>   -4.3895    1.0000 </r>
       <r>   -4.2077    1.0000 </r>
       <r>   -4.2076    1.0000 </r>
       <r>   -4.1321    1.0000 </r>
       <r>   -4.0488    1.0000 </r>
       <r>   -3.8006    1.0000 </r>
       <r>   -3.8005    1.0000 </r>
       <r>   -3.7979    1.0000 </r>
       <r>   -3.6629    1.0000 </r>
       <r>   -3.5699    1.0000 </r>
       <r>   -3.5699    1.0000 </r>
       <r>   -3.4680    1.0000 </r>
       <r>   -3.3635    1.0000 </r>
       <r>   -3.2654    1.0000 </r>
       <r>   -3.2149    1.0000 </r>
       <r>   -3.0630    1.0000 </r>
       <r>   -3.0629    1.0000 </r>
       <r>   -3.0010    1.0000 </r>
       <r>   -2.9394    1.0000 </r>
       <r>   -2.8608    1.0000 </r>
       <r>   -2.8608    1.0000 </r>
       <r>   -2.8392    1.0000 </r>
       <r>   -2.7868    1.0000 </r>
       <r>   -2.7029    1.0000 </r>
       <r>   -2.7028    1.0000 </r>
       <r>   -2.6364    1.0000 </r>
       <r>   -2.5289    1.0000 </r>
       <r>   -2.5276    1.0000 </r>
       <r>   -2.5276    1.0000 </r>
       <r>   -2.4288    1.0000 </r>
       <r>   -2.3663    1.0000 </r>
       <r>   -2.3072    1.0000 </r>
       <r>   -2.1323    1.0000 </r>
       <r>   -2.1204    1.0000 </r>
       <r>   -2.1052    1.0000 </r>
       <r>   -2.1052    1.0000 </r>
       <r>   -1.9505    1.0000 </r>
       <r>   -1.7426    1.0000 </r>
       <r>   -1.6333    1.0000 </r>
       <r>   -1.5305    1.0000 </r>
       <r>   -1.5192    1.0000 </r>
       <r>   -1.5192    1.0000 </r>
       <r>   -1.4108    1.0000 </r>
       <r>   -1.3622    1.0000 </r>
       <r>   -1.3621    1.0000 </r>
       <r>   -1.2515    1.0000 </r>
       <r>   -1.2406    1.0000 </r>
       <r>   -1.1590    1.0000 </r>
       <r>   -1.1589    1.0000 </r>
       <r>   -1.0829    1.0000 </r>
       <r>   -0.9909    1.0000 </r>
       <r>   -0.9044    1.0000 </r>
       <r>   -0.6443    1.0013 </r>
       <r>   -0.6288    1.0018 </r>
       <r>   -0.4331    1.0312 </r>
       <r>   -0.4331    1.0312 </r>
       <r>   -0.1561    0.5246 </r>
       <r>   -0.1253    0.3953 </r>
       <r>   -0.1253    0.3952 </r>
       <r>   -0.1203    0.3749 </r>
       <r>   -0.0855    0.2412 </r>
       <r>    0.1318   -0.0314 </r>
       <r>    0.1318   -0.0314 </r>
       <r>    0.5093   -0.0000 </r>
       <r>    1.7006   -0.0000 </r>
       <r>    1.7455   -0.0000 </r>
       <r>    1.7455   -0.0000 </r>
       <r>    2.2444   -0.0000 </r>
       <r>    2.2444   -0.0000 </r>
       <r>    2.7170   -0.0000 </r>
       <r>    3.3758   -0.0000 </r>
       <r>    3.3758   -0.0000 </r>
       <r>    3.6594   -0.0000 </r>
       <r>    5.2629   -0.0000 </r>
      </set>
      <set comment="kpoint 12">
       <r>   -7.2355    1.0000 </r>
       <r>   -7.2351    1.0000 </r>
       <r>   -6.2480    1.0000 </r>
       <r>   -6.2086    1.0000 </r>
       <r>   -6.2085    1.0000 </r>
       <r>   -5.6830    1.0000 </r>
       <r>   -5.4082    1.0000 </r>
       <r>   -5.4078    1.0000 </r>
       <r>   -5.3681    1.0000 </r>
       <r>   -5.2769    1.0000 </r>
       <r>   -5.1858    1.0000 </r>
       <r>   -5.1174    1.0000 </r>
       <r>   -5.1174    1.0000 </r>
       <r>   -5.0097    1.0000 </r>
       <r>   -4.8021    1.0000 </r>
       <r>   -4.7944    1.0000 </r>
       <r>   -4.7455    1.0000 </r>
       <r>   -4.7453    1.0000 </r>
       <r>   -4.6204    1.0000 </r>
       <r>   -4.5617    1.0000 </r>
       <r>   -4.3950    1.0000 </r>
       <r>   -4.3950    1.0000 </r>
       <r>   -4.3758    1.0000 </r>
       <r>   -4.3654    1.0000 </r>
       <r>   -4.2482    1.0000 </r>
       <r>   -4.2481    1.0000 </r>
       <r>   -4.2386    1.0000 </r>
       <r>   -4.1707    1.0000 </r>
       <r>   -3.9269    1.0000 </r>
       <r>   -3.6964    1.0000 </r>
       <r>   -3.6964    1.0000 </r>
       <r>   -3.6772    1.0000 </r>
       <r>   -3.6074    1.0000 </r>
       <r>   -3.5658    1.0000 </r>
       <r>   -3.5554    1.0000 </r>
       <r>   -3.5553    1.0000 </r>
       <r>   -3.4914    1.0000 </r>
       <r>   -3.4563    1.0000 </r>
       <r>   -3.3954    1.0000 </r>
       <r>   -3.3953    1.0000 </r>
       <r>   -3.1279    1.0000 </r>
       <r>   -3.1278    1.0000 </r>
       <r>   -3.0232    1.0000 </r>
       <r>   -2.8788    1.0000 </r>
       <r>   -2.8547    1.0000 </r>
       <r>   -2.8545    1.0000 </r>
       <r>   -2.7907    1.0000 </r>
       <r>   -2.7768    1.0000 </r>
       <r>   -2.7692    1.0000 </r>
       <r>   -2.7319    1.0000 </r>
       <r>   -2.5167    1.0000 </r>
       <r>   -2.5165    1.0000 </r>
       <r>   -2.2076    1.0000 </r>
       <r>   -2.1754    1.0000 </r>
       <r>   -2.1753    1.0000 </r>
       <r>   -2.0638    1.0000 </r>
       <r>   -2.0637    1.0000 </r>
       <r>   -2.0619    1.0000 </r>
       <r>   -1.8147    1.0000 </r>
       <r>   -1.8145    1.0000 </r>
       <r>   -1.7968    1.0000 </r>
       <r>   -1.6304    1.0000 </r>
       <r>   -1.6067    1.0000 </r>
       <r>   -1.4212    1.0000 </r>
       <r>   -1.3575    1.0000 </r>
       <r>   -1.3574    1.0000 </r>
       <r>   -1.2395    1.0000 </r>
       <r>   -1.1992    1.0000 </r>
       <r>   -1.1991    1.0000 </r>
       <r>   -1.0856    1.0000 </r>
       <r>   -1.0856    1.0000 </r>
       <r>   -0.8774    1.0000 </r>
       <r>   -0.8720    1.0000 </r>
       <r>   -0.8719    1.0000 </r>
       <r>   -0.7284    1.0002 </r>
       <r>   -0.7283    1.0002 </r>
       <r>   -0.5773    1.0050 </r>
       <r>   -0.4325    1.0314 </r>
       <r>   -0.3575    1.0285 </r>
       <r>   -0.3508    1.0254 </r>
       <r>   -0.3161    0.9971 </r>
       <r>   -0.3158    0.9969 </r>
       <r>   -0.1571    0.5292 </r>
       <r>   -0.1539    0.5156 </r>
       <r>    0.2579   -0.0070 </r>
       <r>    0.3457   -0.0013 </r>
       <r>    0.4162   -0.0002 </r>
       <r>    0.4162   -0.0002 </r>
       <r>    1.4444   -0.0000 </r>
       <r>    2.4135   -0.0000 </r>
       <r>    2.4136   -0.0000 </r>
       <r>    3.4562   -0.0000 </r>
       <r>    3.5255   -0.0000 </r>
       <r>    4.4392   -0.0000 </r>
       <r>    4.8521   -0.0000 </r>
       <r>    4.8522   -0.0000 </r>
      </set>
      <set comment="kpoint 13">
       <r>   -7.2353    1.0000 </r>
       <r>   -7.2353    1.0000 </r>
       <r>   -6.2480    1.0000 </r>
       <r>   -6.2086    1.0000 </r>
       <r>   -6.2085    1.0000 </r>
       <r>   -5.6830    1.0000 </r>
       <r>   -5.4081    1.0000 </r>
       <r>   -5.4079    1.0000 </r>
       <r>   -5.3681    1.0000 </r>
       <r>   -5.2769    1.0000 </r>
       <r>   -5.1858    1.0000 </r>
       <r>   -5.1175    1.0000 </r>
       <r>   -5.1173    1.0000 </r>
       <r>   -5.0097    1.0000 </r>
       <r>   -4.8021    1.0000 </r>
       <r>   -4.7944    1.0000 </r>
       <r>   -4.7455    1.0000 </r>
       <r>   -4.7454    1.0000 </r>
       <r>   -4.6204    1.0000 </r>
       <r>   -4.5617    1.0000 </r>
       <r>   -4.3951    1.0000 </r>
       <r>   -4.3950    1.0000 </r>
       <r>   -4.3758    1.0000 </r>
       <r>   -4.3654    1.0000 </r>
       <r>   -4.2483    1.0000 </r>
       <r>   -4.2480    1.0000 </r>
       <r>   -4.2386    1.0000 </r>
       <r>   -4.1707    1.0000 </r>
       <r>   -3.9269    1.0000 </r>
       <r>   -3.6964    1.0000 </r>
       <r>   -3.6964    1.0000 </r>
       <r>   -3.6772    1.0000 </r>
       <r>   -3.6074    1.0000 </r>
       <r>   -3.5658    1.0000 </r>
       <r>   -3.5555    1.0000 </r>
       <r>   -3.5552    1.0000 </r>
       <r>   -3.4914    1.0000 </r>
       <r>   -3.4563    1.0000 </r>
       <r>   -3.3954    1.0000 </r>
       <r>   -3.3953    1.0000 </r>
       <r>   -3.1279    1.0000 </r>
       <r>   -3.1277    1.0000 </r>
       <r>   -3.0232    1.0000 </r>
       <r>   -2.8788    1.0000 </r>
       <r>   -2.8547    1.0000 </r>
       <r>   -2.8545    1.0000 </r>
       <r>   -2.7906    1.0000 </r>
       <r>   -2.7768    1.0000 </r>
       <r>   -2.7692    1.0000 </r>
       <r>   -2.7319    1.0000 </r>
       <r>   -2.5166    1.0000 </r>
       <r>   -2.5165    1.0000 </r>
       <r>   -2.2076    1.0000 </r>
       <r>   -2.1755    1.0000 </r>
       <r>   -2.1751    1.0000 </r>
       <r>   -2.0639    1.0000 </r>
       <r>   -2.0637    1.0000 </r>
       <r>   -2.0619    1.0000 </r>
       <r>   -1.8147    1.0000 </r>
       <r>   -1.8145    1.0000 </r>
       <r>   -1.7968    1.0000 </r>
       <r>   -1.6304    1.0000 </r>
       <r>   -1.6067    1.0000 </r>
       <r>   -1.4212    1.0000 </r>
       <r>   -1.3574    1.0000 </r>
       <r>   -1.3574    1.0000 </r>
       <r>   -1.2395    1.0000 </r>
       <r>   -1.1992    1.0000 </r>
       <r>   -1.1991    1.0000 </r>
       <r>   -1.0857    1.0000 </r>
       <r>   -1.0855    1.0000 </r>
       <r>   -0.8774    1.0000 </r>
       <r>   -0.8720    1.0000 </r>
       <r>   -0.8719    1.0000 </r>
       <r>   -0.7284    1.0002 </r>
       <r>   -0.7283    1.0002 </r>
       <r>   -0.5773    1.0050 </r>
       <r>   -0.4325    1.0314 </r>
       <r>   -0.3575    1.0285 </r>
       <r>   -0.3508    1.0254 </r>
       <r>   -0.3163    0.9973 </r>
       <r>   -0.3157    0.9967 </r>
       <r>   -0.1572    0.5292 </r>
       <r>   -0.1539    0.5156 </r>
       <r>    0.2579   -0.0070 </r>
       <r>    0.3457   -0.0013 </r>
       <r>    0.4162   -0.0002 </r>
       <r>    0.4163   -0.0002 </r>
       <r>    1.4444   -0.0000 </r>
       <r>    2.4135   -0.0000 </r>
       <r>    2.4136   -0.0000 </r>
       <r>    3.4562   -0.0000 </r>
       <r>    3.5255   -0.0000 </r>
       <r>    4.4392   -0.0000 </r>
       <r>    4.8521   -0.0000 </r>
       <r>    4.8523   -0.0000 </r>
      </set>
     </set>
    </set>
   </array>
  </eigenvalues>
  <separator name="orbital magnetization" >
   <v name="MAGDIPOLOUT">      0.00000000      0.00000000      0.00000000</v>
  </separator>
  <dos>
   <i name="efermi">     -0.15025215 </i>
   <total>
    <array>
     <dimension dim="1">gridpoints</dimension>
     <dimension dim="2">spin</dimension>
     <field>energy</field>
     <field>total</field>
     <field>integrated</field>
     <set>
      <set comment="spin 1">
       <r>   -11.2189     0.0000     0.0000 </r>
       <r>   -11.1573     0.0000     0.0000 </r>
       <r>   -11.0956     0.0000     0.0000 </r>
       <r>   -11.0340     0.0000     0.0000 </r>
       <r>   -10.9724     0.0000     0.0000 </r>
       <r>   -10.9108     0.0000     0.0000 </r>
       <r>   -10.8492    -0.0000    -0.0000 </r>
       <r>   -10.7876    -0.0000    -0.0000 </r>
       <r>   -10.7260    -0.0000    -0.0000 </r>
       <r>   -10.6644    -0.0000    -0.0000 </r>
       <r>   -10.6028    -0.0000    -0.0000 </r>
       <r>   -10.5412    -0.0000    -0.0000 </r>
       <r>   -10.4796    -0.0000    -0.0000 </r>
       <r>   -10.4180    -0.0000    -0.0000 </r>
       <r>   -10.3564    -0.0000    -0.0000 </r>
       <r>   -10.2948    -0.0000    -0.0000 </r>
       <r>   -10.2332    -0.0000    -0.0000 </r>
       <r>   -10.1716    -0.0000    -0.0000 </r>
       <r>   -10.1099    -0.0000    -0.0000 </r>
       <r>   -10.0483    -0.0000    -0.0000 </r>
       <r>    -9.9867    -0.0000    -0.0000 </r>
       <r>    -9.9251    -0.0000    -0.0000 </r>
       <r>    -9.8635    -0.0000    -0.0000 </r>
       <r>    -9.8019    -0.0002    -0.0000 </r>
       <r>    -9.7403    -0.0007    -0.0001 </r>
       <r>    -9.6787    -0.0026    -0.0002 </r>
       <r>    -9.6171    -0.0072    -0.0007 </r>
       <r>    -9.5555    -0.0144    -0.0015 </r>
       <r>    -9.4939    -0.0179    -0.0026 </r>
[...]
       <set comment="band 72">
        <r>  0.0009  0.0003  0.0702 </r>
        <r>  0.0009  0.0003  0.0704 </r>
        <r>  0.0009  0.0003  0.0703 </r>
        <r>  0.0009  0.0003  0.0704 </r>
        <r>  0.0001  0.0000  0.0445 </r>
        <r>  0.0001  0.0000  0.0444 </r>
        <r>  0.0001  0.0000  0.0444 </r>
        <r>  0.0001  0.0000  0.0445 </r>
        <r>  0.0001  0.0000  0.0443 </r>
        <r>  0.0001  0.0000  0.0448 </r>
        <r>  0.0001  0.0000  0.0445 </r>
        <r>  0.0001  0.0000  0.0446 </r>
        <r>  0.0010  0.0003  0.0719 </r>
        <r>  0.0009  0.0003  0.0721 </r>
        <r>  0.0010  0.0003  0.0720 </r>
        <r>  0.0009  0.0003  0.0720 </r>
       </set>
       <set comment="band 73">
        <r>  0.0002  0.0010  0.0441 </r>
        <r>  0.0002  0.0010  0.0436 </r>
        <r>  0.0006  0.0008  0.0734 </r>
        <r>  0.0005  0.0008  0.0735 </r>
        <r>  0.0020  0.0006  0.0336 </r>
        <r>  0.0020  0.0006  0.0338 </r>
        <r>  0.0000  0.0011  0.0770 </r>
        <r>  0.0000  0.0011  0.0767 </r>
        <r>  0.0012  0.0006  0.0486 </r>
        <r>  0.0012  0.0006  0.0480 </r>
        <r>  0.0009  0.0011  0.0639 </r>
        <r>  0.0009  0.0011  0.0639 </r>
        <r>  0.0007  0.0008  0.0341 </r>
        <r>  0.0007  0.0008  0.0337 </r>
        <r>  0.0001  0.0011  0.0889 </r>
        <r>  0.0001  0.0011  0.0891 </r>
       </set>
       <set comment="band 74">
        <r>  0.0006  0.0008  0.0733 </r>
        <r>  0.0005  0.0008  0.0734 </r>
        <r>  0.0002  0.0010  0.0439 </r>
        <r>  0.0002  0.0010  0.0438 </r>
        <r>  0.0000  0.0011  0.0768 </r>
        <r>  0.0000  0.0011  0.0768 </r>
        <r>  0.0020  0.0006  0.0334 </r>
        <r>  0.0020  0.0006  0.0339 </r>
        <r>  0.0009  0.0011  0.0639 </r>
        <r>  0.0009  0.0011  0.0638 </r>
        <r>  0.0012  0.0006  0.0486 </r>
        <r>  0.0012  0.0006  0.0484 </r>
        <r>  0.0001  0.0011  0.0890 </r>
        <r>  0.0001  0.0011  0.0892 </r>
        <r>  0.0007  0.0008  0.0340 </r>
        <r>  0.0007  0.0008  0.0339 </r>
       </set>
       <set comment="band 75">
        <r>  0.0022  0.0008  0.1068 </r>
        <r>  0.0021  0.0008  0.1070 </r>
        <r>  0.0008  0.0005  0.0339 </r>
        <r>  0.0008  0.0005  0.0340 </r>
        <r>  0.0004  0.0004  0.0305 </r>
        <r>  0.0004  0.0004  0.0305 </r>
        <r>  0.0001  0.0004  0.0554 </r>
        <r>  0.0001  0.0004  0.0553 </r>
        <r>  0.0003  0.0004  0.0373 </r>
        <r>  0.0003  0.0004  0.0373 </r>
        <r>  0.0001  0.0004  0.0472 </r>
        <r>  0.0001  0.0004  0.0472 </r>
        <r>  0.0006  0.0004  0.0360 </r>
        <r>  0.0006  0.0004  0.0359 </r>
        <r>  0.0025  0.0009  0.1085 </r>
        <r>  0.0025  0.0009  0.1084 </r>
       </set>
       <set comment="band 76">
        <r>  0.0008  0.0005  0.0338 </r>
        <r>  0.0008  0.0005  0.0339 </r>
        <r>  0.0021  0.0008  0.1069 </r>
        <r>  0.0021  0.0008  0.1070 </r>
        <r>  0.0001  0.0004  0.0552 </r>
        <r>  0.0001  0.0004  0.0552 </r>
        <r>  0.0004  0.0004  0.0306 </r>
        <r>  0.0004  0.0004  0.0305 </r>
        <r>  0.0001  0.0004  0.0472 </r>
        <r>  0.0001  0.0004  0.0473 </r>
        <r>  0.0003  0.0004  0.0373 </r>
        <r>  0.0003  0.0004  0.0373 </r>
        <r>  0.0025  0.0009  0.1086 </r>
        <r>  0.0025  0.0009  0.1084 </r>
        <r>  0.0006  0.0004  0.0360 </r>
        <r>  0.0006  0.0004  0.0360 </r>
       </set>
       <set comment="band 77">
        <r>  0.0036  0.0023  0.0455 </r>
        <r>  0.0036  0.0023  0.0455 </r>
        <r>  0.0036  0.0023  0.0454 </r>
        <r>  0.0036  0.0023  0.0454 </r>
        <r>  0.0000  0.0004  0.0605 </r>
        <r>  0.0000  0.0004  0.0605 </r>
        <r>  0.0000  0.0004  0.0602 </r>
        <r>  0.0000  0.0004  0.0603 </r>
        <r>  0.0000  0.0004  0.0605 </r>
        <r>  0.0000  0.0004  0.0605 </r>
        <r>  0.0000  0.0004  0.0603 </r>
        <r>  0.0000  0.0004  0.0603 </r>
        <r>  0.0037  0.0021  0.0466 </r>
        <r>  0.0037  0.0021  0.0467 </r>
        <r>  0.0037  0.0022  0.0469 </r>
        <r>  0.0037  0.0022  0.0470 </r>
       </set>
       <set comment="band 78">
        <r>  0.0001  0.0010  0.0718 </r>
        <r>  0.0001  0.0010  0.0719 </r>
        <r>  0.0001  0.0010  0.0713 </r>
        <r>  0.0001  0.0010  0.0713 </r>
        <r>  0.0001  0.0001  0.0457 </r>
        <r>  0.0001  0.0001  0.0457 </r>
        <r>  0.0001  0.0001  0.0453 </r>
        <r>  0.0001  0.0001  0.0453 </r>
        <r>  0.0001  0.0001  0.0441 </r>
        <r>  0.0001  0.0001  0.0442 </r>
        <r>  0.0001  0.0001  0.0438 </r>
        <r>  0.0001  0.0001  0.0438 </r>
        <r>  0.0001  0.0010  0.0723 </r>
        <r>  0.0001  0.0010  0.0723 </r>
        <r>  0.0001  0.0010  0.0726 </r>
        <r>  0.0001  0.0010  0.0726 </r>
       </set>
       <set comment="band 79">
        <r>  0.0001  0.0011  0.0605 </r>
        <r>  0.0001  0.0011  0.0604 </r>
        <r>  0.0001  0.0011  0.0609 </r>
        <r>  0.0001  0.0011  0.0608 </r>
        <r>  0.0000  0.0004  0.0596 </r>
        <r>  0.0000  0.0004  0.0595 </r>
        <r>  0.0000  0.0004  0.0600 </r>
        <r>  0.0000  0.0004  0.0597 </r>
        <r>  0.0000  0.0004  0.0585 </r>
        <r>  0.0000  0.0004  0.0588 </r>
        <r>  0.0000  0.0004  0.0588 </r>
        <r>  0.0000  0.0004  0.0589 </r>
        <r>  0.0001  0.0011  0.0572 </r>
        <r>  0.0001  0.0011  0.0572 </r>
        <r>  0.0001  0.0011  0.0566 </r>
        <r>  0.0001  0.0011  0.0567 </r>
       </set>
       <set comment="band 80">
        <r>  0.0004  0.0003  0.0459 </r>
        <r>  0.0004  0.0003  0.0458 </r>
        <r>  0.0004  0.0003  0.0461 </r>
        <r>  0.0004  0.0003  0.0461 </r>
        <r>  0.0002  0.0001  0.0720 </r>
        <r>  0.0002  0.0001  0.0720 </r>
        <r>  0.0002  0.0001  0.0722 </r>
        <r>  0.0002  0.0001  0.0722 </r>
        <r>  0.0002  0.0001  0.0746 </r>
        <r>  0.0002  0.0001  0.0747 </r>
        <r>  0.0002  0.0001  0.0749 </r>
        <r>  0.0002  0.0001  0.0750 </r>
        <r>  0.0004  0.0003  0.0443 </r>
        <r>  0.0004  0.0003  0.0443 </r>
        <r>  0.0004  0.0003  0.0442 </r>
        <r>  0.0004  0.0003  0.0442 </r>
       </set>
       <set comment="band 81">
        <r>  0.0000  0.0005  0.0769 </r>
        <r>  0.0000  0.0005  0.0771 </r>
        <r>  0.0006  0.0010  0.0185 </r>
        <r>  0.0006  0.0010  0.0185 </r>
        <r>  0.0001  0.0004  0.1175 </r>
        <r>  0.0001  0.0004  0.1177 </r>
        <r>  0.0001  0.0000  0.0240 </r>
        <r>  0.0001  0.0000  0.0239 </r>
        <r>  0.0002  0.0004  0.1154 </r>
        <r>  0.0002  0.0004  0.1149 </r>
        <r>  0.0001  0.0001  0.0251 </r>
        <r>  0.0001  0.0001  0.0251 </r>
        <r>  0.0006  0.0009  0.0189 </r>
        <r>  0.0006  0.0009  0.0189 </r>
        <r>  0.0001  0.0004  0.0732 </r>
        <r>  0.0001  0.0004  0.0731 </r>
       </set>
       <set comment="band 82">
        <r>  0.0006  0.0010  0.0185 </r>
        <r>  0.0006  0.0010  0.0185 </r>
        <r>  0.0000  0.0005  0.0768 </r>
        <r>  0.0000  0.0005  0.0769 </r>
        <r>  0.0001  0.0000  0.0240 </r>
        <r>  0.0001  0.0000  0.0240 </r>
        <r>  0.0001  0.0004  0.1174 </r>
        <r>  0.0001  0.0004  0.1178 </r>
        <r>  0.0001  0.0001  0.0251 </r>
        <r>  0.0001  0.0001  0.0251 </r>
        <r>  0.0002  0.0004  0.1154 </r>
        <r>  0.0002  0.0004  0.1151 </r>
        <r>  0.0001  0.0004  0.0733 </r>
        <r>  0.0001  0.0004  0.0731 </r>
        <r>  0.0006  0.0009  0.0189 </r>
        <r>  0.0006  0.0009  0.0190 </r>
       </set>
       <set comment="band 83">
        <r>  0.0001  0.0004  0.0324 </r>
        <r>  0.0001  0.0004  0.0324 </r>
        <r>  0.0001  0.0004  0.0331 </r>
        <r>  0.0001  0.0004  0.0331 </r>
        <r>  0.0001  0.0002  0.0901 </r>
        <r>  0.0001  0.0002  0.0902 </r>
        <r>  0.0001  0.0002  0.0875 </r>
        <r>  0.0001  0.0002  0.0875 </r>
        <r>  0.0001  0.0002  0.0847 </r>
        <r>  0.0001  0.0002  0.0847 </r>
        <r>  0.0001  0.0002  0.0875 </r>
        <r>  0.0001  0.0002  0.0875 </r>
        <r>  0.0001  0.0004  0.0305 </r>
        <r>  0.0001  0.0004  0.0305 </r>
        <r>  0.0001  0.0004  0.0314 </r>
        <r>  0.0001  0.0004  0.0314 </r>
       </set>
       <set comment="band 84">
        <r>  0.0003  0.0003  0.0284 </r>
        <r>  0.0003  0.0003  0.0283 </r>
        <r>  0.0003  0.0003  0.0275 </r>
        <r>  0.0003  0.0003  0.0275 </r>
        <r>  0.0002  0.0007  0.0881 </r>
        <r>  0.0002  0.0007  0.0881 </r>
        <r>  0.0002  0.0007  0.0908 </r>
        <r>  0.0002  0.0007  0.0908 </r>
        <r>  0.0002  0.0008  0.0923 </r>
        <r>  0.0002  0.0008  0.0923 </r>
        <r>  0.0002  0.0008  0.0897 </r>
        <r>  0.0002  0.0008  0.0896 </r>
        <r>  0.0003  0.0003  0.0287 </r>
        <r>  0.0003  0.0003  0.0287 </r>
        <r>  0.0003  0.0003  0.0279 </r>
        <r>  0.0003  0.0003  0.0279 </r>
       </set>
       <set comment="band 85">
        <r>  0.0012  0.0023  0.0496 </r>
        <r>  0.0012  0.0023  0.0496 </r>
        <r>  0.0012  0.0023  0.0496 </r>
        <r>  0.0012  0.0023  0.0496 </r>
        <r>  0.0066  0.0047  0.0618 </r>
        <r>  0.0066  0.0047  0.0618 </r>
        <r>  0.0066  0.0047  0.0619 </r>
        <r>  0.0066  0.0047  0.0619 </r>
        <r>  0.0059  0.0043  0.0589 </r>
        <r>  0.0059  0.0043  0.0588 </r>
        <r>  0.0059  0.0043  0.0590 </r>
        <r>  0.0059  0.0043  0.0590 </r>
        <r>  0.0007  0.0016  0.0378 </r>
        <r>  0.0007  0.0016  0.0378 </r>
        <r>  0.0007  0.0016  0.0378 </r>
        <r>  0.0007  0.0016  0.0377 </r>
       </set>
       <set comment="band 86">
        <r>  0.0074  0.0076  0.0751 </r>
        <r>  0.0075  0.0076  0.0751 </r>
        <r>  0.0074  0.0076  0.0751 </r>
        <r>  0.0075  0.0076  0.0751 </r>
        <r>  0.0018  0.0026  0.0090 </r>
        <r>  0.0018  0.0026  0.0090 </r>
        <r>  0.0018  0.0026  0.0090 </r>
        <r>  0.0018  0.0026  0.0090 </r>
        <r>  0.0025  0.0031  0.0123 </r>
        <r>  0.0025  0.0031  0.0123 </r>
        <r>  0.0025  0.0031  0.0123 </r>
        <r>  0.0025  0.0031  0.0123 </r>
        <r>  0.0080  0.0084  0.0878 </r>
        <r>  0.0079  0.0084  0.0878 </r>
        <r>  0.0079  0.0084  0.0878 </r>
        <r>  0.0079  0.0084  0.0878 </r>
       </set>
       <set comment="band 87">
        <r>  0.0082  0.0047  0.0456 </r>
        <r>  0.0082  0.0047  0.0457 </r>
        <r>  0.0139  0.0050  0.0199 </r>
        <r>  0.0139  0.0050  0.0200 </r>
        <r>  0.0000  0.0021  0.0608 </r>
        <r>  0.0000  0.0021  0.0608 </r>
        <r>  0.0076  0.0041  0.0394 </r>
        <r>  0.0076  0.0041  0.0395 </r>
        <r>  0.0023  0.0026  0.0321 </r>
        <r>  0.0023  0.0026  0.0320 </r>
        <r>  0.0059  0.0035  0.0672 </r>
        <r>  0.0058  0.0035  0.0672 </r>
        <r>  0.0039  0.0040  0.0220 </r>
        <r>  0.0039  0.0040  0.0220 </r>
        <r>  0.0186  0.0055  0.0431 </r>
        <r>  0.0186  0.0055  0.0431 </r>
       </set>
       <set comment="band 88">
        <r>  0.0140  0.0050  0.0199 </r>
        <r>  0.0139  0.0050  0.0200 </r>
        <r>  0.0082  0.0047  0.0457 </r>
        <r>  0.0082  0.0047  0.0457 </r>
        <r>  0.0076  0.0041  0.0394 </r>
        <r>  0.0076  0.0041  0.0395 </r>
        <r>  0.0000  0.0021  0.0607 </r>
        <r>  0.0000  0.0021  0.0609 </r>
        <r>  0.0059  0.0035  0.0672 </r>
        <r>  0.0058  0.0035  0.0671 </r>
        <r>  0.0023  0.0026  0.0321 </r>
        <r>  0.0023  0.0026  0.0321 </r>
        <r>  0.0186  0.0055  0.0432 </r>
        <r>  0.0186  0.0055  0.0431 </r>
        <r>  0.0039  0.0040  0.0220 </r>
        <r>  0.0039  0.0040  0.0220 </r>
       </set>
       <set comment="band 89">
        <r>  0.0171  0.0107  0.0305 </r>
        <r>  0.0171  0.0107  0.0305 </r>
        <r>  0.0171  0.0107  0.0305 </r>
        <r>  0.0171  0.0107  0.0305 </r>
        <r>  0.0047  0.0064  0.0302 </r>
        <r>  0.0047  0.0064  0.0302 </r>
        <r>  0.0047  0.0064  0.0302 </r>
        <r>  0.0047  0.0064  0.0302 </r>
        <r>  0.0050  0.0065  0.0301 </r>
        <r>  0.0050  0.0065  0.0301 </r>
        <r>  0.0050  0.0065  0.0301 </r>
        <r>  0.0050  0.0065  0.0301 </r>
        <r>  0.0175  0.0108  0.0310 </r>
        <r>  0.0175  0.0108  0.0310 </r>
        <r>  0.0175  0.0108  0.0310 </r>
        <r>  0.0175  0.0108  0.0310 </r>
       </set>
       <set comment="band 90">
        <r>  0.0085  0.0146  0.0270 </r>
        <r>  0.0085  0.0146  0.0270 </r>
        <r>  0.0052  0.0071  0.0298 </r>
        <r>  0.0052  0.0071  0.0298 </r>
        <r>  0.0373  0.0037  0.0338 </r>
        <r>  0.0373  0.0037  0.0338 </r>
        <r>  0.0003  0.0063  0.0109 </r>
        <r>  0.0003  0.0063  0.0109 </r>
        <r>  0.0276  0.0044  0.0245 </r>
        <r>  0.0277  0.0044  0.0244 </r>
        <r>  0.0098  0.0059  0.0205 </r>
        <r>  0.0098  0.0059  0.0205 </r>
        <r>  0.0110  0.0152  0.0162 </r>
        <r>  0.0110  0.0152  0.0162 </r>
        <r>  0.0027  0.0061  0.0400 </r>
        <r>  0.0027  0.0061  0.0400 </r>
       </set>
       <set comment="band 91">
        <r>  0.0052  0.0071  0.0298 </r>
        <r>  0.0052  0.0071  0.0298 </r>
        <r>  0.0085  0.0146  0.0270 </r>
        <r>  0.0085  0.0146  0.0270 </r>
        <r>  0.0003  0.0063  0.0109 </r>
        <r>  0.0003  0.0063  0.0109 </r>
        <r>  0.0373  0.0037  0.0338 </r>
        <r>  0.0373  0.0037  0.0338 </r>
        <r>  0.0098  0.0059  0.0205 </r>
        <r>  0.0098  0.0059  0.0205 </r>
        <r>  0.0276  0.0044  0.0245 </r>
        <r>  0.0276  0.0044  0.0245 </r>
        <r>  0.0027  0.0061  0.0400 </r>
        <r>  0.0027  0.0061  0.0400 </r>
        <r>  0.0110  0.0152  0.0162 </r>
        <r>  0.0110  0.0152  0.0162 </r>
       </set>
       <set comment="band 92">
        <r>  0.0121  0.0046  0.0179 </r>
        <r>  0.0121  0.0046  0.0179 </r>
        <r>  0.0121  0.0046  0.0179 </r>
        <r>  0.0121  0.0046  0.0179 </r>
        <r>  0.0254  0.0120  0.0330 </r>
        <r>  0.0254  0.0120  0.0330 </r>
        <r>  0.0253  0.0120  0.0330 </r>
        <r>  0.0253  0.0120  0.0330 </r>
        <r>  0.0252  0.0118  0.0331 </r>
        <r>  0.0252  0.0118  0.0331 </r>
        <r>  0.0251  0.0118  0.0331 </r>
        <r>  0.0251  0.0118  0.0331 </r>
        <r>  0.0115  0.0044  0.0173 </r>
        <r>  0.0116  0.0044  0.0173 </r>
        <r>  0.0116  0.0044  0.0173 </r>
        <r>  0.0116  0.0044  0.0173 </r>
       </set>
       <set comment="band 93">
        <r>  0.0089  0.0107  0.0204 </r>
        <r>  0.0089  0.0107  0.0204 </r>
        <r>  0.0089  0.0107  0.0204 </r>
        <r>  0.0089  0.0107  0.0204 </r>
        <r>  0.0225  0.0102  0.0187 </r>
        <r>  0.0225  0.0102  0.0187 </r>
        <r>  0.0227  0.0102  0.0187 </r>
        <r>  0.0227  0.0102  0.0187 </r>
        <r>  0.0225  0.0102  0.0187 </r>
        <r>  0.0225  0.0102  0.0187 </r>
        <r>  0.0226  0.0102  0.0188 </r>
        <r>  0.0226  0.0102  0.0188 </r>
        <r>  0.0088  0.0104  0.0201 </r>
        <r>  0.0088  0.0104  0.0201 </r>
        <r>  0.0087  0.0104  0.0200 </r>
        <r>  0.0087  0.0104  0.0200 </r>
       </set>
       <set comment="band 94">
        <r>  0.0289  0.0122  0.0284 </r>
        <r>  0.0289  0.0122  0.0284 </r>
        <r>  0.0289  0.0122  0.0284 </r>
        <r>  0.0289  0.0122  0.0284 </r>
        <r>  0.0093  0.0065  0.0129 </r>
        <r>  0.0093  0.0065  0.0129 </r>
        <r>  0.0093  0.0065  0.0129 </r>
        <r>  0.0093  0.0065  0.0129 </r>
        <r>  0.0097  0.0066  0.0131 </r>
        <r>  0.0097  0.0066  0.0131 </r>
        <r>  0.0097  0.0066  0.0131 </r>
        <r>  0.0097  0.0066  0.0131 </r>
        <r>  0.0295  0.0123  0.0290 </r>
        <r>  0.0295  0.0123  0.0290 </r>
        <r>  0.0295  0.0123  0.0290 </r>
        <r>  0.0295  0.0123  0.0290 </r>
       </set>
       <set comment="band 95">
        <r>  0.0002  0.0010  0.0218 </r>
        <r>  0.0002  0.0010  0.0218 </r>
        <r>  0.0003  0.0332  0.0043 </r>
        <r>  0.0003  0.0332  0.0043 </r>
        <r>  0.0007  0.0115  0.0209 </r>
        <r>  0.0007  0.0115  0.0209 </r>
        <r>  0.0001  0.0234  0.0104 </r>
        <r>  0.0001  0.0233  0.0104 </r>
        <r>  0.0000  0.0268  0.0080 </r>
        <r>  0.0000  0.0269  0.0080 </r>
        <r>  0.0008  0.0079  0.0230 </r>
        <r>  0.0008  0.0079  0.0229 </r>
        <r>  0.0002  0.0003  0.0208 </r>
        <r>  0.0002  0.0003  0.0208 </r>
        <r>  0.0004  0.0341  0.0050 </r>
        <r>  0.0004  0.0341  0.0050 </r>
       </set>
       <set comment="band 96">
        <r>  0.0003  0.0332  0.0043 </r>
        <r>  0.0003  0.0332  0.0043 </r>
        <r>  0.0002  0.0010  0.0218 </r>
        <r>  0.0002  0.0010  0.0218 </r>
        <r>  0.0001  0.0234  0.0104 </r>
        <r>  0.0001  0.0234  0.0104 </r>
        <r>  0.0007  0.0115  0.0209 </r>
        <r>  0.0007  0.0115  0.0209 </r>
        <r>  0.0008  0.0079  0.0229 </r>
        <r>  0.0008  0.0079  0.0229 </r>
        <r>  0.0000  0.0269  0.0080 </r>
        <r>  0.0000  0.0269  0.0080 </r>
        <r>  0.0004  0.0340  0.0050 </r>
        <r>  0.0004  0.0340  0.0050 </r>
        <r>  0.0002  0.0003  0.0208 </r>
        <r>  0.0002  0.0003  0.0208 </r>
       </set>
      </set>
     </set>
    </set>
   </array>
  </projected>
 </calculation>
 <structure name="finalpos" >
  <crystal>
   <varray name="basis" >
    <v>       5.64384424       0.00000000       0.00000000 </v>
    <v>       2.82192212       4.88771248       0.00000000 </v>
    <v>       0.00000000       0.00000000      26.91226928 </v>
   </varray>
   <i name="volume">    742.38807929 </i>
   <varray name="rec_basis" >
    <v>       0.17718420      -0.10229734       0.00000000 </v>
    <v>       0.00000000       0.20459469       0.00000000 </v>
    <v>       0.00000000       0.00000000       0.03715777 </v>
   </varray>
  </crystal>
  <varray name="positions" >
   <v>       0.00000000       0.00000000       0.37157773 </v>
   <v>       0.50000000       0.00000000       0.37157773 </v>
   <v>       0.00000000       0.50000000       0.37157773 </v>
   <v>       0.50000000       0.50000000       0.37157773 </v>
   <v>       0.16666667       0.16666667       0.45719258 </v>
   <v>       0.66666667       0.16666667       0.45719258 </v>
   <v>       0.16666667       0.66666667       0.45719258 </v>
   <v>       0.66666667       0.66666667       0.45719258 </v>
   <v>       0.83333223       0.33333460       0.54224858 </v>
   <v>       0.33333380       0.33333344       0.54224907 </v>
   <v>       0.83333311       0.83333271       0.54224556 </v>
   <v>       0.33333473       0.83333212       0.54224573 </v>
   <v>       0.00000098       0.99999725       0.62871984 </v>
   <v>       0.50000116       0.99999838       0.62871361 </v>
   <v>       0.99999965       0.50000239       0.62872752 </v>
   <v>       0.49999831       0.50000193       0.62872513 </v>
  </varray>
  <varray name="selective"  type="logical" >
   <v type="logical" >  F  F  F </v>
   <v type="logical" >  F  F  F </v>
   <v type="logical" >  F  F  F </v>
   <v type="logical" >  F  F  F </v>
   <v type="logical" >  F  F  F </v>
   <v type="logical" >  F  F  F </v>
   <v type="logical" >  F  F  F </v>
   <v type="logical" >  F  F  F </v>
   <v type="logical" >  T  T  T </v>
   <v type="logical" >  T  T  T </v>
   <v type="logical" >  T  T  T </v>
   <v type="logical" >  T  T  T </v>
   <v type="logical" >  T  T  T </v>
   <v type="logical" >  T  T  T </v>
   <v type="logical" >  T  T  T </v>
   <v type="logical" >  T  T  T </v>
  </varray>
  <nose>
   <v>      -3.00000000       0.00000000       0.00010000       0.00010000 </v>
  </nose>
 </structure>
</modeling>
