unknown system                          
           1
     5.643844    0.000000    0.000000
     2.821922    4.887712    0.000000
     0.000000    0.000000   26.912269
   Pt
  16
Direct configuration=     1
   0.00000000  0.00000000  0.37157773
   0.50000000  0.00000000  0.37157773
   0.00000000  0.50000000  0.37157773
   0.50000000  0.50000000  0.37157773
   0.16666667  0.16666667  0.45719258
   0.66666667  0.16666667  0.45719258
   0.16666667  0.66666667  0.45719258
   0.66666667  0.66666667  0.45719258
   0.83333223  0.33333460  0.54224858
   0.33333380  0.33333344  0.54224907
   0.83333311  0.83333271  0.54224556
   0.33333473  0.83333212  0.54224573
   0.00000098  0.99999725  0.62871984
   0.50000116  0.99999838  0.62871361
   0.99999965  0.50000239  0.62872752
   0.49999831  0.50000193  0.62872513
