  18  18   1   0
  0.3430412E+02  0.5199964E-09  0.5199964E-09  0.2636863E-08  0.5000000E-15
  1.000000000000000E-004
  CAR 
 unknown system                          
      7.67541082    -27.10357244  301     -0.52833562      1.00000000
    -27.104  0.0000E+00  0.0000E+00
    -26.988  0.0000E+00  0.0000E+00
    -26.872  0.0000E+00  0.0000E+00
    -26.756 -0.9104E-28 -0.1055E-28
    -26.640 -0.8737E-24 -0.1013E-24
    -26.524 -0.4258E-20 -0.4937E-21
    -26.408 -0.1053E-16 -0.1221E-17
    -26.292 -0.1318E-13 -0.1529E-14
    -26.176 -0.8061E-11 -0.9360E-12
    -26.060 -0.2551E-08 -0.2967E-09
    -25.944 -0.4040E-06 -0.4714E-07
    -25.828 -0.3174E-04 -0.3727E-05
    -25.712 -0.1217E-02 -0.1448E-03
    -25.596 -0.2203E-01 -0.2698E-02
    -25.481 -0.1727E+00 -0.2271E-01
    -25.365 -0.4000E+00 -0.6909E-01
    -25.249  0.1134E+01  0.6240E-01
    -25.133  0.5968E+01  0.7543E+00
    -25.017  0.7829E+01  0.1662E+01
    -24.901  0.3371E+01  0.2053E+01
    -24.785 -0.5061E-01  0.2047E+01
    -24.669 -0.3281E+00  0.2009E+01
    -24.553 -0.7014E-01  0.2001E+01
    -24.437 -0.5820E-02  0.2000E+01
    -24.321 -0.2207E-03  0.2000E+01
    -24.205 -0.4031E-05  0.2000E+01
    -24.089 -0.3626E-07  0.2000E+01
    -23.973 -0.1626E-09  0.2000E+01
    -23.858 -0.3665E-12  0.2000E+01
    -23.742  0.0000E+00  0.2000E+01
    -23.626  0.0000E+00  0.2000E+01
    -23.510  0.0000E+00  0.2000E+01
    -23.394  0.0000E+00  0.2000E+01
    -23.278  0.0000E+00  0.2000E+01
    -23.162  0.0000E+00  0.2000E+01
    -23.046  0.0000E+00  0.2000E+01
    -22.930  0.0000E+00  0.2000E+01
    -22.814  0.0000E+00  0.2000E+01
    -22.698  0.0000E+00  0.2000E+01
    -22.582  0.0000E+00  0.2000E+01
    -22.466  0.0000E+00  0.2000E+01
    -22.350  0.0000E+00  0.2000E+01
    -22.235  0.0000E+00  0.2000E+01
    -22.119  0.0000E+00  0.2000E+01
    -22.003  0.0000E+00  0.2000E+01
    -21.887  0.0000E+00  0.2000E+01
    -21.771  0.0000E+00  0.2000E+01
    -21.655  0.0000E+00  0.2000E+01
    -21.539  0.0000E+00  0.2000E+01
    -21.423  0.0000E+00  0.2000E+01
    -21.307  0.0000E+00  0.2000E+01
    -21.191  0.0000E+00  0.2000E+01
    -21.075  0.0000E+00  0.2000E+01
    -20.959  0.0000E+00  0.2000E+01
    -20.843  0.0000E+00  0.2000E+01
    -20.727  0.0000E+00  0.2000E+01
    -20.611  0.0000E+00  0.2000E+01
    -20.496  0.0000E+00  0.2000E+01
    -20.380  0.0000E+00  0.2000E+01
    -20.264  0.0000E+00  0.2000E+01
    -20.148  0.0000E+00  0.2000E+01
    -20.032  0.0000E+00  0.2000E+01
    -19.916  0.0000E+00  0.2000E+01
    -19.800  0.0000E+00  0.2000E+01
    -19.684  0.0000E+00  0.2000E+01
    -19.568  0.0000E+00  0.2000E+01
    -19.452  0.0000E+00  0.2000E+01
    -19.336  0.0000E+00  0.2000E+01
    -19.220  0.0000E+00  0.2000E+01
    -19.104  0.0000E+00  0.2000E+01
    -18.988  0.0000E+00  0.2000E+01
    -18.873  0.0000E+00  0.2000E+01
    -18.757  0.0000E+00  0.2000E+01
    -18.641  0.0000E+00  0.2000E+01
    -18.525  0.0000E+00  0.2000E+01
    -18.409  0.0000E+00  0.2000E+01
    -18.293  0.0000E+00  0.2000E+01
    -18.177  0.0000E+00  0.2000E+01
    -18.061  0.0000E+00  0.2000E+01
    -17.945  0.0000E+00  0.2000E+01
    -17.829  0.0000E+00  0.2000E+01
    -17.713  0.0000E+00  0.2000E+01
    -17.597  0.0000E+00  0.2000E+01
    -17.481  0.0000E+00  0.2000E+01
    -17.365  0.0000E+00  0.2000E+01
    -17.250  0.0000E+00  0.2000E+01
    -17.134  0.0000E+00  0.2000E+01
    -17.018  0.0000E+00  0.2000E+01
    -16.902  0.0000E+00  0.2000E+01
    -16.786  0.0000E+00  0.2000E+01
    -16.670  0.0000E+00  0.2000E+01
    -16.554  0.0000E+00  0.2000E+01
    -16.438  0.0000E+00  0.2000E+01
    -16.322  0.0000E+00  0.2000E+01
    -16.206  0.0000E+00  0.2000E+01
    -16.090  0.0000E+00  0.2000E+01
    -15.974  0.0000E+00  0.2000E+01
    -15.858  0.0000E+00  0.2000E+01
    -15.742  0.0000E+00  0.2000E+01
    -15.627  0.0000E+00  0.2000E+01
    -15.511  0.0000E+00  0.2000E+01
    -15.395  0.0000E+00  0.2000E+01
    -15.279  0.0000E+00  0.2000E+01
    -15.163  0.0000E+00  0.2000E+01
    -15.047  0.0000E+00  0.2000E+01
    -14.931  0.0000E+00  0.2000E+01
    -14.815  0.0000E+00  0.2000E+01
    -14.699  0.0000E+00  0.2000E+01
    -14.583  0.0000E+00  0.2000E+01
    -14.467  0.0000E+00  0.2000E+01
    -14.351  0.0000E+00  0.2000E+01
    -14.235  0.0000E+00  0.2000E+01
    -14.119  0.0000E+00  0.2000E+01
    -14.003  0.0000E+00  0.2000E+01
    -13.888  0.0000E+00  0.2000E+01
    -13.772  0.0000E+00  0.2000E+01
    -13.656  0.0000E+00  0.2000E+01
    -13.540  0.0000E+00  0.2000E+01
    -13.424  0.0000E+00  0.2000E+01
    -13.308  0.0000E+00  0.2000E+01
    -13.192  0.0000E+00  0.2000E+01
    -13.076  0.0000E+00  0.2000E+01
    -12.960  0.0000E+00  0.2000E+01
    -12.844  0.0000E+00  0.2000E+01
    -12.728  0.0000E+00  0.2000E+01
    -12.612  0.0000E+00  0.2000E+01
    -12.496  0.0000E+00  0.2000E+01
    -12.380  0.0000E+00  0.2000E+01
    -12.265 -0.3181E-28  0.2000E+01
    -12.149 -0.3118E-24  0.2000E+01
    -12.033 -0.1563E-20  0.2000E+01
    -11.917 -0.4007E-17  0.2000E+01
    -11.801 -0.5207E-14  0.2000E+01
    -11.685 -0.3384E-11  0.2000E+01
    -11.569 -0.1140E-08  0.2000E+01
    -11.453 -0.1940E-06  0.2000E+01
    -11.337 -0.1654E-04  0.2000E+01
    -11.221 -0.6967E-03  0.2000E+01
    -11.105 -0.1408E-01  0.1998E+01
    -10.989 -0.1271E+00  0.1984E+01
    -10.873 -0.3899E+00  0.1938E+01
    -10.757  0.5836E+00  0.2006E+01
    -10.642  0.4968E+01  0.2582E+01
    -10.526  0.8010E+01  0.3511E+01
    -10.410  0.4392E+01  0.4020E+01
    -10.294  0.3192E+00  0.4057E+01
    -10.178 -0.3745E+00  0.4013E+01
    -10.062 -0.1042E+00  0.4001E+01
     -9.946 -0.1043E-01  0.4000E+01
     -9.830 -0.4721E-03  0.4000E+01
     -9.714 -0.7213E-04  0.4000E+01
     -9.598 -0.1059E-02  0.4000E+01
     -9.482 -0.7810E-02  0.3999E+01
     -9.366 -0.1724E-01  0.3997E+01
     -9.250  0.3608E-01  0.4001E+01
     -9.134  0.1684E+00  0.4021E+01
     -9.019  0.3261E+00  0.4058E+01
     -8.903  0.1035E+01  0.4178E+01
     -8.787  0.1901E+01  0.4399E+01
     -8.671  0.1267E+01  0.4546E+01
     -8.555  0.7915E-01  0.4555E+01
     -8.439  0.1116E+00  0.4568E+01
     -8.323  0.1415E+01  0.4732E+01
     -8.207  0.2973E+01  0.5077E+01
     -8.091  0.4122E+01  0.5554E+01
     -7.975  0.4489E+01  0.6075E+01
     -7.859  0.7478E+01  0.6942E+01
     -7.743  0.1602E+02  0.8799E+01
     -7.627  0.1745E+02  0.1082E+02
     -7.511  0.7056E+01  0.1164E+02
     -7.395  0.4160E+00  0.1169E+02
     -7.280  0.9954E+00  0.1180E+02
     -7.164  0.2594E+01  0.1210E+02
     -7.048  0.3665E+01  0.1253E+02
     -6.932  0.4029E+01  0.1300E+02
     -6.816  0.3340E+01  0.1338E+02
     -6.700  0.2945E+01  0.1372E+02
     -6.584  0.3237E+01  0.1410E+02
     -6.468  0.2528E+01  0.1439E+02
     -6.352  0.7364E+00  0.1448E+02
     -6.236 -0.1127E+00  0.1447E+02
     -6.120  0.1103E+01  0.1459E+02
     -6.004  0.4223E+01  0.1508E+02
     -5.888  0.7435E+01  0.1595E+02
     -5.772  0.8296E+01  0.1691E+02
     -5.657  0.6190E+01  0.1762E+02
     -5.541  0.3968E+01  0.1808E+02
     -5.425  0.4020E+01  0.1855E+02
     -5.309  0.5471E+01  0.1918E+02
     -5.193  0.9567E+01  0.2029E+02
     -5.077  0.1389E+02  0.2190E+02
     -4.961  0.1563E+02  0.2372E+02
     -4.845  0.1826E+02  0.2583E+02
     -4.729  0.2139E+02  0.2831E+02
     -4.613  0.2403E+02  0.3110E+02
     -4.497  0.2963E+02  0.3453E+02
     -4.381  0.3759E+02  0.3889E+02
     -4.265  0.3994E+02  0.4352E+02
     -4.149  0.3699E+02  0.4781E+02
     -4.034  0.3519E+02  0.5189E+02
     -3.918  0.3545E+02  0.5600E+02
     -3.802  0.3704E+02  0.6029E+02
     -3.686  0.3974E+02  0.6490E+02
     -3.570  0.4589E+02  0.7022E+02
     -3.454  0.5511E+02  0.7661E+02
     -3.338  0.6343E+02  0.8396E+02
     -3.222  0.7160E+02  0.9226E+02
     -3.106  0.7338E+02  0.1008E+03
     -2.990  0.6374E+02  0.1082E+03
     -2.874  0.5430E+02  0.1145E+03
     -2.758  0.5252E+02  0.1205E+03
     -2.642  0.5423E+02  0.1268E+03
     -2.526  0.6174E+02  0.1340E+03
     -2.410  0.7005E+02  0.1421E+03
     -2.295  0.7258E+02  0.1505E+03
     -2.179  0.7940E+02  0.1597E+03
     -2.063  0.7968E+02  0.1690E+03
     -1.947  0.5479E+02  0.1753E+03
     -1.831  0.2370E+02  0.1781E+03
     -1.715  0.9845E+01  0.1792E+03
     -1.599  0.8323E+01  0.1802E+03
     -1.483  0.7968E+01  0.1811E+03
     -1.367  0.4849E+01  0.1817E+03
     -1.251  0.1899E+01  0.1819E+03
     -1.135  0.2725E+01  0.1822E+03
     -1.019  0.3362E+01  0.1826E+03
     -0.903  0.2981E+01  0.1829E+03
     -0.787  0.6712E+01  0.1837E+03
     -0.672  0.1034E+02  0.1849E+03
     -0.556  0.8109E+01  0.1858E+03
     -0.440  0.5280E+01  0.1865E+03
     -0.324  0.6258E+01  0.1872E+03
     -0.208  0.8431E+01  0.1882E+03
     -0.092  0.7438E+01  0.1890E+03
      0.024  0.5417E+01  0.1896E+03
      0.140  0.5132E+01  0.1902E+03
      0.256  0.4176E+01  0.1907E+03
      0.372  0.1929E+01  0.1909E+03
      0.488  0.7770E+00  0.1910E+03
      0.604  0.2542E+01  0.1913E+03
      0.720  0.6659E+01  0.1921E+03
      0.836  0.9517E+01  0.1932E+03
      0.951  0.8601E+01  0.1942E+03
      1.067  0.7183E+01  0.1950E+03
      1.183  0.7217E+01  0.1959E+03
      1.299  0.6148E+01  0.1966E+03
      1.415  0.4087E+01  0.1971E+03
      1.531  0.3461E+01  0.1975E+03
      1.647  0.4577E+01  0.1980E+03
      1.763  0.5546E+01  0.1986E+03
      1.879  0.6022E+01  0.1993E+03
      1.995  0.7340E+01  0.2002E+03
      2.111  0.8311E+01  0.2011E+03
      2.227  0.6819E+01  0.2019E+03
      2.343  0.5213E+01  0.2025E+03
      2.459  0.5253E+01  0.2032E+03
      2.574  0.4731E+01  0.2037E+03
      2.690  0.4590E+01  0.2042E+03
      2.806  0.5643E+01  0.2049E+03
      2.922  0.5745E+01  0.2056E+03
      3.038  0.3697E+01  0.2060E+03
      3.154  0.1704E+01  0.2062E+03
      3.270  0.3085E+01  0.2065E+03
      3.386  0.5321E+01  0.2072E+03
      3.502  0.3733E+01  0.2076E+03
      3.618  0.2171E+01  0.2078E+03
      3.734  0.4642E+01  0.2084E+03
      3.850  0.8322E+01  0.2093E+03
      3.966  0.9928E+01  0.2105E+03
      4.082  0.9219E+01  0.2116E+03
      4.198  0.7861E+01  0.2125E+03
      4.313  0.7281E+01  0.2133E+03
      4.429  0.6403E+01  0.2141E+03
      4.545  0.5710E+01  0.2147E+03
      4.661  0.8497E+01  0.2157E+03
      4.777  0.1020E+02  0.2169E+03
      4.893  0.8679E+01  0.2179E+03
      5.009  0.7861E+01  0.2188E+03
      5.125  0.7044E+01  0.2196E+03
      5.241  0.6473E+01  0.2204E+03
      5.357  0.6446E+01  0.2211E+03
      5.473  0.7662E+01  0.2220E+03
      5.589  0.9084E+01  0.2231E+03
      5.705  0.6484E+01  0.2238E+03
      5.821  0.2001E+01  0.2240E+03
      5.936 -0.9874E-01  0.2240E+03
      6.052 -0.2290E+00  0.2240E+03
      6.168 -0.5767E-01  0.2240E+03
      6.284 -0.6165E-02  0.2240E+03
      6.400 -0.3142E-03  0.2240E+03
      6.516 -0.7871E-05  0.2240E+03
      6.632 -0.9808E-07  0.2240E+03
      6.748 -0.6120E-09  0.2240E+03
      6.864 -0.1921E-11  0.2240E+03
      6.980 -0.2758E-14  0.2240E+03
      7.096  0.0000E+00  0.2240E+03
      7.212  0.0000E+00  0.2240E+03
      7.328  0.0000E+00  0.2240E+03
      7.444  0.0000E+00  0.2240E+03
      7.559  0.0000E+00  0.2240E+03
      7.675  0.0000E+00  0.2240E+03
      7.67541082    -27.10357244  301     -0.52833562      1.00000000
    -27.104  0.0000E+00  0.0000E+00  0.0000E+00
    -26.988  0.0000E+00  0.0000E+00  0.0000E+00
    -26.872  0.0000E+00  0.0000E+00  0.0000E+00
    -26.756 -0.2915E-39 -0.2839E-38 -0.1686E-37
    -26.640 -0.2809E-35 -0.2725E-34 -0.1620E-33
    -26.524 -0.1375E-31 -0.1328E-30 -0.7903E-30
    -26.408 -0.3412E-28 -0.3282E-27 -0.1956E-26
    -26.292 -0.4291E-25 -0.4109E-24 -0.2452E-23
    -26.176 -0.2635E-22 -0.2512E-21 -0.1501E-20
    -26.060 -0.8375E-20 -0.7951E-19 -0.4757E-18
    -25.944 -0.1332E-17 -0.1259E-16 -0.7543E-16
    -25.828 -0.1051E-15 -0.9888E-15 -0.5932E-14
    -25.712 -0.4047E-14 -0.3791E-13 -0.2277E-12
    -25.596 -0.7360E-13 -0.6860E-12 -0.4128E-11
    -25.481 -0.5802E-12 -0.5376E-11 -0.3241E-10
    -25.365 -0.1360E-11 -0.1245E-10 -0.7533E-10
    -25.249  0.3777E-11  0.3533E-10  0.2124E-09
    -25.133  0.2015E-10  0.1858E-09  0.1122E-08
    -25.017  0.2660E-10  0.2437E-09  0.1474E-08
    -24.901  0.1155E-10  0.1049E-09  0.6362E-09
    -24.785 -0.1420E-12 -0.1584E-11 -0.9053E-11
    -24.669 -0.1119E-11 -0.1021E-10 -0.6185E-10
    -24.553 -0.2410E-12 -0.2183E-11 -0.1325E-10
    -24.437 -0.2010E-13 -0.1811E-12 -0.1101E-11
    -24.321 -0.7657E-15 -0.6866E-14 -0.4181E-13
    -24.205 -0.1404E-16 -0.1254E-15 -0.7645E-15
    -24.089 -0.1269E-18 -0.1128E-17 -0.6886E-17
    -23.973 -0.5714E-21 -0.5055E-20 -0.3092E-19
    -23.858 -0.1293E-23 -0.1141E-22 -0.6972E-22
    -23.742  0.0000E+00  0.0000E+00  0.0000E+00
    -23.626  0.0000E+00  0.0000E+00  0.0000E+00
    -23.510  0.0000E+00  0.0000E+00  0.0000E+00
    -23.394  0.0000E+00  0.0000E+00  0.0000E+00
    -23.278  0.0000E+00  0.0000E+00  0.0000E+00
    -23.162  0.0000E+00  0.0000E+00  0.0000E+00
    -23.046  0.0000E+00  0.0000E+00  0.0000E+00
    -22.930  0.0000E+00  0.0000E+00  0.0000E+00
    -22.814  0.0000E+00  0.0000E+00  0.0000E+00
    -22.698  0.0000E+00  0.0000E+00  0.0000E+00
    -22.582  0.0000E+00  0.0000E+00  0.0000E+00
    -22.466  0.0000E+00  0.0000E+00  0.0000E+00
    -22.350  0.0000E+00  0.0000E+00  0.0000E+00
    -22.235  0.0000E+00  0.0000E+00  0.0000E+00
    -22.119  0.0000E+00  0.0000E+00  0.0000E+00
    -22.003  0.0000E+00  0.0000E+00  0.0000E+00
    -21.887  0.0000E+00  0.0000E+00  0.0000E+00
    -21.771  0.0000E+00  0.0000E+00  0.0000E+00
    -21.655  0.0000E+00  0.0000E+00  0.0000E+00
    -21.539  0.0000E+00  0.0000E+00  0.0000E+00
    -21.423  0.0000E+00  0.0000E+00  0.0000E+00
    -21.307  0.0000E+00  0.0000E+00  0.0000E+00
    -21.191  0.0000E+00  0.0000E+00  0.0000E+00
    -21.075  0.0000E+00  0.0000E+00  0.0000E+00
    -20.959  0.0000E+00  0.0000E+00  0.0000E+00
    -20.843  0.0000E+00  0.0000E+00  0.0000E+00
    -20.727  0.0000E+00  0.0000E+00  0.0000E+00
    -20.611  0.0000E+00  0.0000E+00  0.0000E+00
    -20.496  0.0000E+00  0.0000E+00  0.0000E+00
    -20.380  0.0000E+00  0.0000E+00  0.0000E+00
    -20.264  0.0000E+00  0.0000E+00  0.0000E+00
    -20.148  0.0000E+00  0.0000E+00  0.0000E+00
    -20.032  0.0000E+00  0.0000E+00  0.0000E+00
    -19.916  0.0000E+00  0.0000E+00  0.0000E+00
    -19.800  0.0000E+00  0.0000E+00  0.0000E+00
    -19.684  0.0000E+00  0.0000E+00  0.0000E+00
    -19.568  0.0000E+00  0.0000E+00  0.0000E+00
    -19.452  0.0000E+00  0.0000E+00  0.0000E+00
    -19.336  0.0000E+00  0.0000E+00  0.0000E+00
    -19.220  0.0000E+00  0.0000E+00  0.0000E+00
    -19.104  0.0000E+00  0.0000E+00  0.0000E+00
    -18.988  0.0000E+00  0.0000E+00  0.0000E+00
    -18.873  0.0000E+00  0.0000E+00  0.0000E+00
    -18.757  0.0000E+00  0.0000E+00  0.0000E+00
    -18.641  0.0000E+00  0.0000E+00  0.0000E+00
    -18.525  0.0000E+00  0.0000E+00  0.0000E+00
    -18.409  0.0000E+00  0.0000E+00  0.0000E+00
    -18.293  0.0000E+00  0.0000E+00  0.0000E+00
    -18.177  0.0000E+00  0.0000E+00  0.0000E+00
    -18.061  0.0000E+00  0.0000E+00  0.0000E+00
    -17.945  0.0000E+00  0.0000E+00  0.0000E+00
    -17.829  0.0000E+00  0.0000E+00  0.0000E+00
    -17.713  0.0000E+00  0.0000E+00  0.0000E+00
    -17.597  0.0000E+00  0.0000E+00  0.0000E+00
    -17.481  0.0000E+00  0.0000E+00  0.0000E+00
    -17.365  0.0000E+00  0.0000E+00  0.0000E+00
    -17.250  0.0000E+00  0.0000E+00  0.0000E+00
    -17.134  0.0000E+00  0.0000E+00  0.0000E+00
    -17.018  0.0000E+00  0.0000E+00  0.0000E+00
    -16.902  0.0000E+00  0.0000E+00  0.0000E+00
    -16.786  0.0000E+00  0.0000E+00  0.0000E+00
    -16.670  0.0000E+00  0.0000E+00  0.0000E+00
    -16.554  0.0000E+00  0.0000E+00  0.0000E+00
    -16.438  0.0000E+00  0.0000E+00  0.0000E+00
    -16.322  0.0000E+00  0.0000E+00  0.0000E+00
    -16.206  0.0000E+00  0.0000E+00  0.0000E+00
    -16.090  0.0000E+00  0.0000E+00  0.0000E+00
    -15.974  0.0000E+00  0.0000E+00  0.0000E+00
    -15.858  0.0000E+00  0.0000E+00  0.0000E+00
    -15.742  0.0000E+00  0.0000E+00  0.0000E+00
    -15.627  0.0000E+00  0.0000E+00  0.0000E+00
    -15.511  0.0000E+00  0.0000E+00  0.0000E+00
    -15.395  0.0000E+00  0.0000E+00  0.0000E+00
    -15.279  0.0000E+00  0.0000E+00  0.0000E+00
    -15.163  0.0000E+00  0.0000E+00  0.0000E+00
    -15.047  0.0000E+00  0.0000E+00  0.0000E+00
    -14.931  0.0000E+00  0.0000E+00  0.0000E+00
    -14.815  0.0000E+00  0.0000E+00  0.0000E+00
    -14.699  0.0000E+00  0.0000E+00  0.0000E+00
    -14.583  0.0000E+00  0.0000E+00  0.0000E+00
    -14.467  0.0000E+00  0.0000E+00  0.0000E+00
    -14.351  0.0000E+00  0.0000E+00  0.0000E+00
    -14.235  0.0000E+00  0.0000E+00  0.0000E+00
    -14.119  0.0000E+00  0.0000E+00  0.0000E+00
    -14.003  0.0000E+00  0.0000E+00  0.0000E+00
    -13.888  0.0000E+00  0.0000E+00  0.0000E+00
    -13.772  0.0000E+00  0.0000E+00  0.0000E+00
    -13.656  0.0000E+00  0.0000E+00  0.0000E+00
    -13.540  0.0000E+00  0.0000E+00  0.0000E+00
    -13.424  0.0000E+00  0.0000E+00  0.0000E+00
    -13.308  0.0000E+00  0.0000E+00  0.0000E+00
    -13.192  0.0000E+00  0.0000E+00  0.0000E+00
    -13.076  0.0000E+00  0.0000E+00  0.0000E+00
    -12.960  0.0000E+00  0.0000E+00  0.0000E+00
    -12.844  0.0000E+00  0.0000E+00  0.0000E+00
    -12.728  0.0000E+00  0.0000E+00  0.0000E+00
    -12.612  0.0000E+00  0.0000E+00  0.0000E+00
    -12.496  0.0000E+00  0.0000E+00  0.0000E+00
    -12.380  0.0000E+00  0.0000E+00  0.0000E+00
    -12.265 -0.2103E-33 -0.5871E-34 -0.3859E-35
    -12.149 -0.1950E-29 -0.5479E-30 -0.3725E-31
    -12.033 -0.9206E-26 -0.2605E-26 -0.1834E-27
    -11.917 -0.2212E-22 -0.6306E-23 -0.4598E-24
    -11.801 -0.2652E-19 -0.7637E-20 -0.5824E-21
    -11.685 -0.1616E-16 -0.4684E-17 -0.3674E-18
    -11.569 -0.5025E-14 -0.1469E-14 -0.1197E-15
    -11.453 -0.7850E-12 -0.2317E-12 -0.1962E-13
    -11.337 -0.6108E-10 -0.1822E-10 -0.1605E-11
    -11.221 -0.2331E-08 -0.7029E-09 -0.6453E-10
    -11.105 -0.4222E-07 -0.1289E-07 -0.1238E-08
    -10.989 -0.3338E-06 -0.1035E-06 -0.1048E-07
    -10.873 -0.7991E-06 -0.2560E-06 -0.2861E-07
    -10.757  0.2110E-05  0.6348E-06  0.5764E-07
    -10.642  0.1170E-04  0.3679E-05  0.3884E-06
    -10.526  0.1590E-04  0.5108E-05  0.5748E-06
    -10.410  0.7235E-05  0.2383E-05  0.2877E-06
    -10.294  0.5562E-07  0.4007E-07  0.1180E-07
    -10.178 -0.6819E-06 -0.2216E-06 -0.2580E-07
    -10.062 -0.1564E-06 -0.5216E-07 -0.6509E-08
     -9.946 -0.1426E-07 -0.4749E-08 -0.6118E-09
     -9.830 -0.3706E-07 -0.5335E-08 -0.3549E-10
     -9.714 -0.1326E-05 -0.1868E-06 -0.3423E-09
     -9.598 -0.2267E-04 -0.3195E-05 -0.6043E-08
     -9.482 -0.1670E-03 -0.2358E-04 -0.5506E-07
     -9.366 -0.3645E-03 -0.5280E-04 -0.3979E-06
     -9.250  0.8215E-03  0.9958E-04 -0.3210E-05
     -9.134  0.3813E-02  0.4687E-03 -0.1351E-04
     -9.019  0.6931E-02  0.9926E-03  0.5164E-05
     -8.903  0.1989E-01  0.3544E-02  0.1617E-03
     -8.787  0.3602E-01  0.6616E-02  0.3339E-03
     -8.671  0.2433E-01  0.4440E-02  0.2122E-03
     -8.555  0.2284E-02  0.3640E-03 -0.1527E-04
     -8.439  0.2084E-03  0.4230E-03  0.9291E-04
     -8.323  0.1670E-01  0.4351E-02  0.6627E-03
     -8.207  0.3907E-01  0.8043E-02  0.1213E-02
     -8.091  0.5814E-01  0.9560E-02  0.1353E-02
     -7.975  0.5943E-01  0.9356E-02  0.1216E-02
     -7.859  0.5288E-01  0.1132E-01  0.1718E-02
     -7.743  0.5770E-01  0.1621E-01  0.2944E-02
     -7.627  0.4338E-01  0.1354E-01  0.2677E-02
     -7.511  0.1653E-01  0.4198E-02  0.1071E-02
     -7.395  0.3069E-01  0.6399E-03  0.1102E-02
     -7.280  0.8081E-01  0.5048E-02  0.3552E-02
     -7.164  0.8935E-01  0.1425E-01  0.7766E-02
     -7.048  0.7681E-01  0.2719E-01  0.1208E-01
     -6.932  0.1172E+00  0.3360E-01  0.1156E-01
     -6.816  0.1567E+00  0.2832E-01  0.7478E-02
     -6.700  0.1595E+00  0.2472E-01  0.7436E-02
     -6.584  0.1197E+00  0.3116E-01  0.1281E-01
     -6.468  0.4059E-01  0.2904E-01  0.1323E-01
     -6.352 -0.6255E-02  0.9621E-02  0.4595E-02
     -6.236 -0.9812E-02 -0.9455E-03  0.4420E-03
     -6.120  0.2443E-01  0.1819E-01  0.1024E-01
     -6.004  0.1448E+00  0.5252E-01  0.3676E-01
     -5.888  0.2518E+00  0.6804E-01  0.7601E-01
     -5.772  0.1960E+00  0.6777E-01  0.9647E-01
     -5.657  0.1211E+00  0.5594E-01  0.7557E-01
     -5.541  0.1289E+00  0.3040E-01  0.5027E-01
     -5.425  0.1501E+00  0.1566E-01  0.5424E-01
     -5.309  0.1495E+00  0.3110E-01  0.9301E-01
     -5.193  0.1787E+00  0.7693E-01  0.1844E+00
     -5.077  0.1869E+00  0.1003E+00  0.2419E+00
     -4.961  0.1340E+00  0.8009E-01  0.2309E+00
     -4.845  0.1532E+00  0.8823E-01  0.2892E+00
     -4.729  0.2119E+00  0.1136E+00  0.4733E+00
     -4.613  0.1965E+00  0.1040E+00  0.7094E+00
     -4.497  0.1719E+00  0.8774E-01  0.9037E+00
     -4.381  0.1768E+00  0.8813E-01  0.1061E+01
     -4.265  0.1350E+00  0.8531E-01  0.1202E+01
     -4.149  0.7375E-01  0.8017E-01  0.1317E+01
     -4.034  0.4223E-01  0.8830E-01  0.1551E+01
     -3.918  0.3120E-01  0.9097E-01  0.1972E+01
     -3.802  0.3377E-01  0.8100E-01  0.2074E+01
     -3.686  0.3217E-01  0.7125E-01  0.1820E+01
     -3.570  0.3394E-01  0.7084E-01  0.1934E+01
     -3.454  0.5843E-01  0.8975E-01  0.2684E+01
     -3.338  0.7210E-01  0.1065E+00  0.3693E+01
     -3.222  0.5175E-01  0.1139E+00  0.4572E+01
     -3.106  0.4946E-01  0.1527E+00  0.5172E+01
     -2.990  0.8528E-01  0.2078E+00  0.4917E+01
     -2.874  0.9662E-01  0.2093E+00  0.4289E+01
     -2.758  0.5863E-01  0.1350E+00  0.4018E+01
     -2.642  0.2433E-01  0.6548E-01  0.3719E+01
     -2.526  0.2526E-01  0.7501E-01  0.4145E+01
     -2.410  0.4870E-01  0.1099E+00  0.5242E+01
     -2.295  0.5662E-01  0.9142E-01  0.5642E+01
     -2.179  0.4730E-01  0.5777E-01  0.5451E+01
     -2.063  0.4524E-01  0.5534E-01  0.4847E+01
     -1.947  0.4179E-01  0.5656E-01  0.3231E+01
     -1.831  0.4180E-01  0.4438E-01  0.1328E+01
     -1.715  0.5845E-01  0.4752E-01  0.4850E+00
     -1.599  0.7746E-01  0.8240E-01  0.4133E+00
     -1.483  0.6850E-01  0.1101E+00  0.3244E+00
     -1.367  0.3028E-01  0.8049E-01  0.1342E+00
     -1.251  0.1679E-01  0.3913E-01  0.3497E-01
     -1.135  0.5031E-01  0.4593E-01  0.7207E-01
     -1.019  0.6067E-01  0.4766E-01  0.9627E-01
     -0.903  0.3068E-01  0.4509E-01  0.6793E-01
     -0.787  0.3948E-01  0.9789E-01  0.1374E+00
     -0.672  0.9173E-01  0.1474E+00  0.2379E+00
     -0.556  0.1254E+00  0.1296E+00  0.2000E+00
     -0.440  0.1141E+00  0.1070E+00  0.1193E+00
     -0.324  0.8084E-01  0.1567E+00  0.1315E+00
     -0.208  0.6455E-01  0.2279E+00  0.2041E+00
     -0.092  0.8465E-01  0.2134E+00  0.2014E+00
      0.024  0.8856E-01  0.1443E+00  0.1650E+00
      0.140  0.5323E-01  0.8252E-01  0.1733E+00
      0.256  0.1588E-01  0.3530E-01  0.1301E+00
      0.372 -0.6751E-03  0.5860E-02  0.4723E-01
      0.488 -0.2696E-02  0.2766E-01  0.1826E-02
      0.604 -0.1040E-02  0.1268E+00  0.6866E-02
      0.720  0.7013E-02  0.2526E+00  0.3461E-01
      0.836  0.2496E-01  0.3173E+00  0.5464E-01
      0.951  0.4570E-01  0.2940E+00  0.6013E-01
      1.067  0.6900E-01  0.2257E+00  0.6909E-01
      1.183  0.9414E-01  0.1701E+00  0.9872E-01
      1.299  0.9421E-01  0.1419E+00  0.1146E+00
      1.415  0.4720E-01  0.1449E+00  0.8479E-01
      1.531  0.6451E-02  0.1564E+00  0.4925E-01
      1.647  0.5550E-02  0.1419E+00  0.4619E-01
      1.763  0.9167E-02  0.1337E+00  0.6423E-01
      1.879  0.9116E-02  0.1467E+00  0.9326E-01
      1.995  0.3214E-01  0.1477E+00  0.1257E+00
      2.111  0.5420E-01  0.1545E+00  0.1151E+00
      2.227  0.3912E-01  0.1393E+00  0.6493E-01
      2.343  0.2728E-01  0.1405E+00  0.4503E-01
      2.459  0.3091E-01  0.1843E+00  0.5837E-01
      2.574  0.1866E-01  0.1573E+00  0.4870E-01
      2.690  0.1186E-01  0.1017E+00  0.3749E-01
      2.806  0.2115E-01  0.9153E-01  0.4820E-01
      2.922  0.2049E-01  0.5726E-01  0.5029E-01
      3.038  0.7723E-02  0.6611E-02  0.3426E-01
      3.154  0.2021E-02  0.1034E-02  0.2018E-01
      3.270  0.1070E-01  0.5598E-01  0.3595E-01
      3.386  0.1913E-01  0.1074E+00  0.5079E-01
      3.502  0.1960E-01  0.7296E-01  0.3059E-01
      3.618  0.2588E-01  0.4732E-01  0.2389E-01
      3.734  0.3503E-01  0.1041E+00  0.5396E-01
      3.850  0.7019E-01  0.1395E+00  0.9007E-01
      3.966  0.1241E+00  0.1216E+00  0.1092E+00
      4.082  0.1221E+00  0.1037E+00  0.1022E+00
      4.198  0.8971E-01  0.8759E-01  0.8451E-01
      4.313  0.6584E-01  0.6430E-01  0.6784E-01
      4.429  0.3748E-01  0.3743E-01  0.4732E-01
      4.545  0.1274E-01  0.2750E-01  0.5052E-01
      4.661  0.2682E-01  0.6393E-01  0.9705E-01
      4.777  0.7812E-01  0.9547E-01  0.1229E+00
      4.893  0.1163E+00  0.9591E-01  0.1031E+00
      5.009  0.1081E+00  0.1097E+00  0.7462E-01
      5.125  0.7137E-01  0.1397E+00  0.4800E-01
      5.241  0.3474E-01  0.1658E+00  0.4350E-01
      5.357  0.2408E-01  0.1716E+00  0.5743E-01
      5.473  0.5146E-01  0.1727E+00  0.6432E-01
      5.589  0.6804E-01  0.1331E+00  0.4898E-01
      5.705  0.4010E-01  0.5331E-01  0.2113E-01
      5.821  0.8543E-02  0.5788E-02  0.2955E-02
      5.936 -0.1475E-02 -0.3255E-02 -0.1338E-02
      6.052 -0.1237E-02 -0.1671E-02 -0.6970E-03
      6.168 -0.2796E-03 -0.3538E-03 -0.1331E-03
      6.284 -0.2909E-04 -0.3675E-04 -0.1248E-04
      6.400 -0.1476E-05 -0.1880E-05 -0.5940E-06
      6.516 -0.3699E-07 -0.4746E-07 -0.1436E-07
      6.632 -0.4616E-09 -0.5950E-09 -0.1757E-09
      6.748 -0.2884E-11 -0.3728E-11 -0.1086E-11
      6.864 -0.9055E-14 -0.1172E-13 -0.3390E-14
      6.980 -0.1302E-16 -0.1689E-16 -0.4831E-17
      7.096  0.0000E+00  0.0000E+00  0.0000E+00
      7.212  0.0000E+00  0.0000E+00  0.0000E+00
      7.328  0.0000E+00  0.0000E+00  0.0000E+00
      7.444  0.0000E+00  0.0000E+00  0.0000E+00
      7.559  0.0000E+00  0.0000E+00  0.0000E+00
      7.675  0.0000E+00  0.0000E+00  0.0000E+00
      7.67541082    -27.10357244  301     -0.52833562      1.00000000
    -27.104  0.0000E+00  0.0000E+00  0.0000E+00
    -26.988  0.0000E+00  0.0000E+00  0.0000E+00
    -26.872  0.0000E+00  0.0000E+00  0.0000E+00
    -26.756 -0.5136E-39 -0.2996E-38 -0.4187E-37
    -26.640 -0.4930E-35 -0.2876E-34 -0.4017E-33
    -26.524 -0.2403E-31 -0.1402E-30 -0.1957E-29
    -26.408 -0.5941E-28 -0.3465E-27 -0.4837E-26
    -26.292 -0.7440E-25 -0.4339E-24 -0.6056E-23
    -26.176 -0.4550E-22 -0.2653E-21 -0.3702E-20
    -26.060 -0.1440E-19 -0.8397E-19 -0.1171E-17
    -25.944 -0.2281E-17 -0.1330E-16 -0.1855E-15
    -25.828 -0.1792E-15 -0.1045E-14 -0.1457E-13
    -25.712 -0.6872E-14 -0.4005E-13 -0.5583E-12
    -25.596 -0.1244E-12 -0.7250E-12 -0.1010E-10
    -25.481 -0.9753E-12 -0.5683E-11 -0.7916E-10
    -25.365 -0.2260E-11 -0.1317E-10 -0.1833E-09
    -25.249  0.6406E-11  0.3733E-10  0.5203E-09
    -25.133  0.3372E-10  0.1965E-09  0.2736E-08
    -25.017  0.4424E-10  0.2577E-09  0.3587E-08
    -24.901  0.1905E-10  0.1110E-09  0.1544E-08
    -24.785 -0.2847E-12 -0.1666E-11 -0.2344E-10
    -24.669 -0.1854E-11 -0.1080E-10 -0.1503E-09
    -24.553 -0.3965E-12 -0.2309E-11 -0.3211E-10
    -24.437 -0.3290E-13 -0.1916E-12 -0.2663E-11
    -24.321 -0.1248E-14 -0.7265E-14 -0.1010E-12
    -24.205 -0.2279E-16 -0.1327E-15 -0.1844E-14
    -24.089 -0.2050E-18 -0.1193E-17 -0.1658E-16
    -23.973 -0.9195E-21 -0.5351E-20 -0.7433E-19
    -23.858 -0.2071E-23 -0.1206E-22 -0.1676E-21
    -23.742  0.0000E+00  0.0000E+00  0.0000E+00
    -23.626  0.0000E+00  0.0000E+00  0.0000E+00
    -23.510  0.0000E+00  0.0000E+00  0.0000E+00
    -23.394  0.0000E+00  0.0000E+00  0.0000E+00
    -23.278  0.0000E+00  0.0000E+00  0.0000E+00
    -23.162  0.0000E+00  0.0000E+00  0.0000E+00
    -23.046  0.0000E+00  0.0000E+00  0.0000E+00
    -22.930  0.0000E+00  0.0000E+00  0.0000E+00
    -22.814  0.0000E+00  0.0000E+00  0.0000E+00
    -22.698  0.0000E+00  0.0000E+00  0.0000E+00
    -22.582  0.0000E+00  0.0000E+00  0.0000E+00
    -22.466  0.0000E+00  0.0000E+00  0.0000E+00
    -22.350  0.0000E+00  0.0000E+00  0.0000E+00
    -22.235  0.0000E+00  0.0000E+00  0.0000E+00
    -22.119  0.0000E+00  0.0000E+00  0.0000E+00
    -22.003  0.0000E+00  0.0000E+00  0.0000E+00
    -21.887  0.0000E+00  0.0000E+00  0.0000E+00
    -21.771  0.0000E+00  0.0000E+00  0.0000E+00
    -21.655  0.0000E+00  0.0000E+00  0.0000E+00
    -21.539  0.0000E+00  0.0000E+00  0.0000E+00
    -21.423  0.0000E+00  0.0000E+00  0.0000E+00
    -21.307  0.0000E+00  0.0000E+00  0.0000E+00
    -21.191  0.0000E+00  0.0000E+00  0.0000E+00
    -21.075  0.0000E+00  0.0000E+00  0.0000E+00
    -20.959  0.0000E+00  0.0000E+00  0.0000E+00
    -20.843  0.0000E+00  0.0000E+00  0.0000E+00
    -20.727  0.0000E+00  0.0000E+00  0.0000E+00
    -20.611  0.0000E+00  0.0000E+00  0.0000E+00
    -20.496  0.0000E+00  0.0000E+00  0.0000E+00
    -20.380  0.0000E+00  0.0000E+00  0.0000E+00
    -20.264  0.0000E+00  0.0000E+00  0.0000E+00
    -20.148  0.0000E+00  0.0000E+00  0.0000E+00
    -20.032  0.0000E+00  0.0000E+00  0.0000E+00
    -19.916  0.0000E+00  0.0000E+00  0.0000E+00
    -19.800  0.0000E+00  0.0000E+00  0.0000E+00
    -19.684  0.0000E+00  0.0000E+00  0.0000E+00
    -19.568  0.0000E+00  0.0000E+00  0.0000E+00
    -19.452  0.0000E+00  0.0000E+00  0.0000E+00
    -19.336  0.0000E+00  0.0000E+00  0.0000E+00
    -19.220  0.0000E+00  0.0000E+00  0.0000E+00
    -19.104  0.0000E+00  0.0000E+00  0.0000E+00
    -18.988  0.0000E+00  0.0000E+00  0.0000E+00
    -18.873  0.0000E+00  0.0000E+00  0.0000E+00
    -18.757  0.0000E+00  0.0000E+00  0.0000E+00
    -18.641  0.0000E+00  0.0000E+00  0.0000E+00
    -18.525  0.0000E+00  0.0000E+00  0.0000E+00
    -18.409  0.0000E+00  0.0000E+00  0.0000E+00
    -18.293  0.0000E+00  0.0000E+00  0.0000E+00
    -18.177  0.0000E+00  0.0000E+00  0.0000E+00
    -18.061  0.0000E+00  0.0000E+00  0.0000E+00
    -17.945  0.0000E+00  0.0000E+00  0.0000E+00
    -17.829  0.0000E+00  0.0000E+00  0.0000E+00
    -17.713  0.0000E+00  0.0000E+00  0.0000E+00
    -17.597  0.0000E+00  0.0000E+00  0.0000E+00
    -17.481  0.0000E+00  0.0000E+00  0.0000E+00
    -17.365  0.0000E+00  0.0000E+00  0.0000E+00
    -17.250  0.0000E+00  0.0000E+00  0.0000E+00
    -17.134  0.0000E+00  0.0000E+00  0.0000E+00
    -17.018  0.0000E+00  0.0000E+00  0.0000E+00
    -16.902  0.0000E+00  0.0000E+00  0.0000E+00
    -16.786  0.0000E+00  0.0000E+00  0.0000E+00