   18   18    1    1
  0.3430412E+02  0.5199964E-09  0.5199964E-09  0.2636863E-08  0.5000000E-15
  1.000000000000000E-004
  CAR 
 unknown system                          
    186     13    112
 
  0.0000000E+00  0.0000000E+00  0.0000000E+00  0.4000000E-01
    1      -25.102583   1.000000
    2      -10.625023   1.000000
    3       -9.113645   1.000000
    4       -8.213321   1.000000
    5       -7.682900   1.000000
    6       -7.682295   1.000000
    7       -7.434320   1.000000
    8       -6.150158   1.000000
    9       -5.409391   1.000000
   10       -5.138274   1.000000
   11       -5.138236   1.000000
   12       -5.083870   1.000000
   13       -5.006189   1.000000
   14       -5.006136   1.000000
   15       -4.974903   1.000000
   16       -4.765474   1.000000
   17       -4.765408   1.000000
   18       -4.593558   1.000000
   19       -4.589033   1.000000
   20       -4.589003   1.000000
   21       -4.587819   1.000000
   22       -4.587811   1.000000
   23       -4.560552   1.000000
   24       -4.534944   1.000000
   25       -4.303460   1.000000
   26       -4.303442   1.000000
   27       -4.168778   1.000000
   28       -3.863685   1.000000
   29       -3.863673   1.000000
   30       -3.627335   1.000000
   31       -3.491380   1.000000
   32       -3.479975   1.000000
   33       -3.479852   1.000000
   34       -3.411507   1.000000
   35       -3.395013   1.000000
   36       -3.384424   1.000000
   37       -3.384260   1.000000
   38       -3.328881   1.000000
   39       -3.328785   1.000000
   40       -3.295781   1.000000
   41       -3.295758   1.000000
   42       -3.275402   1.000000
   43       -3.271564   1.000000
   44       -3.271423   1.000000
   45       -3.174153   1.000000
   46       -3.133053   1.000000
   47       -3.132950   1.000000
   48       -3.109225   1.000000
   49       -3.109152   1.000000
   50       -3.042213   1.000000
   51       -3.042173   1.000000
   52       -3.028308   1.000000
   53       -2.848394   1.000000
   54       -2.841419   1.000000
   55       -2.841386   1.000000
   56       -2.837789   1.000000
   57       -2.649433   1.000000
   58       -2.649394   1.000000
   59       -2.569423   1.000000
   60       -2.569369   1.000000
   61       -2.451072   1.000000
   62       -2.451029   1.000000
   63       -2.414571   1.000000
   64       -2.368097   1.000000
   65       -2.332923   1.000000
   66       -2.332893   1.000000
   67       -2.270554   1.000000
   68       -2.270530   1.000000
   69       -2.196068   1.000000
   70       -2.196038   1.000000
   71       -2.157587   1.000000
   72       -2.155968   1.000000
   73       -2.155921   1.000000
   74       -2.098815   1.000000
   75       -2.094992   1.000000
   76       -2.094948   1.000000
   77       -2.072853   1.000000
   78       -2.072783   1.000000
   79       -2.057709   1.000000
   80       -2.057606   1.000000
   81       -2.048484   1.000000
   82       -1.976437   1.000000
   83       -1.972704   1.000000
   84       -1.972613   1.000000
   85       -1.921337   1.000000
   86       -1.912434   1.000000
   87       -1.912338   1.000000
   88       -1.877017   1.000000
   89       -1.198701   1.000011
   90       -0.861974   1.019953
   91       -0.861892   1.019972
   92       -0.734333   1.027966
   93       -0.056600  -0.002127
   94       -0.056448  -0.002120
   95        0.207651  -0.000001
   96        0.443607  -0.000000
   97        0.529954  -0.000000
   98        0.530099  -0.000000
   99        0.750408  -0.000000
  100        0.946625  -0.000000
  101        0.946656  -0.000000
  102        1.019865  -0.000000
  103        2.337266  -0.000000
  104        2.337865  -0.000000
  105        3.034773  -0.000000
  106        3.505447  -0.000000
  107        3.621152  -0.000000
  108        3.621157  -0.000000
  109        3.629642  -0.000000
  110        4.261388  -0.000000
  111        4.261744  -0.000000
  112        4.344378  -0.000000
 
  0.2000000E+00 -0.1387779E-16  0.0000000E+00  0.8000000E-01
    1      -25.103355   1.000000
    2      -10.608008   1.000000
    3       -8.825807   1.000000
    4       -8.062840   1.000000
    5       -7.709596   1.000000
    6       -7.690116   1.000000
    7       -7.266464   1.000000
    8       -5.919431   1.000000
    9       -5.447455   1.000000
   10       -5.210029   1.000000
   11       -5.108335   1.000000
   12       -5.075098   1.000000
   13       -5.032062   1.000000
   14       -4.925579   1.000000
   15       -4.893999   1.000000
   16       -4.771942   1.000000
   17       -4.672048   1.000000
   18       -4.573608   1.000000
   19       -4.513038   1.000000
   20       -4.506322   1.000000
   21       -4.471701   1.000000
   22       -4.456888   1.000000
   23       -4.444504   1.000000
   24       -4.402880   1.000000
   25       -4.231220   1.000000
   26       -4.230810   1.000000
   27       -4.110577   1.000000
   28       -3.877514   1.000000
   29       -3.862936   1.000000
   30       -3.673927   1.000000
   31       -3.604679   1.000000
   32       -3.550236   1.000000
   33       -3.500854   1.000000
   34       -3.468669   1.000000
   35       -3.435249   1.000000
   36       -3.428330   1.000000
   37       -3.403155   1.000000
   38       -3.353360   1.000000
   39       -3.331282   1.000000
   40       -3.309295   1.000000
   41       -3.289866   1.000000
   42       -3.269877   1.000000
   43       -3.248924   1.000000
   44       -3.236810   1.000000
   45       -3.228491   1.000000
   46       -3.214819   1.000000
   47       -3.203615   1.000000
   48       -3.172892   1.000000
   49       -3.162881   1.000000
   50       -3.117428   1.000000
   51       -3.102992   1.000000
   52       -3.032307   1.000000
   53       -3.002736   1.000000
   54       -2.940485   1.000000
   55       -2.868405   1.000000
   56       -2.801388   1.000000
   57       -2.699648   1.000000
   58       -2.693553   1.000000
   59       -2.667250   1.000000
   60       -2.635257   1.000000
   61       -2.587587   1.000000
   62       -2.558897   1.000000
   63       -2.516389   1.000000
   64       -2.499526   1.000000
   65       -2.472359   1.000000
   66       -2.461937   1.000000
   67       -2.435294   1.000000
   68       -2.394074   1.000000
   69       -2.391980   1.000000
   70       -2.288546   1.000000
   71       -2.252513   1.000000
   72       -2.235251   1.000000
   73       -2.229407   1.000000
   74       -2.208753   1.000000
   75       -2.208466   1.000000
   76       -2.182477   1.000000
   77       -2.163184   1.000000
   78       -2.158833   1.000000
   79       -2.141751   1.000000
   80       -2.102421   1.000000
   81       -2.093406   1.000000
   82       -2.084497   1.000000
   83       -2.049985   1.000000
   84       -2.039154   1.000000
   85       -2.038766   1.000000
   86       -2.010121   1.000000
   87       -1.999778   1.000000
   88       -1.956118   1.000000
   89       -1.916094   1.000000
   90       -1.469123   1.000000
   91       -0.809014   1.031648
   92       -0.762577   1.034983
   93       -0.692461   0.995138
   94       -0.262440  -0.033998
   95       -0.223735  -0.026615
   96       -0.081850  -0.003516
   97        0.661431  -0.000000
   98        0.687286  -0.000000
   99        1.238701  -0.000000
  100        1.668122  -0.000000
  101        1.819862  -0.000000
  102        2.138983  -0.000000
  103        2.627539  -0.000000
  104        2.809667  -0.000000
  105        3.359649  -0.000000
  106        3.798356  -0.000000
  107        3.917358  -0.000000
  108        3.925155  -0.000000
  109        4.325220  -0.000000
  110        4.647066  -0.000000
  111        4.697347  -0.000000
  112        4.759405  -0.000000
 
  0.4000000E+00 -0.2775558E-16  0.0000000E+00  0.8000000E-01
    1      -25.103501   1.000000
    2      -10.582600   1.000000
    3       -8.117522   1.000000
    4       -7.756325   1.000000
    5       -7.712689   1.000000
    6       -7.700901   1.000000
    7       -6.673590   1.000000
    8       -6.542563   1.000000
    9       -5.666876   1.000000
   10       -5.294737   1.000000
   11       -4.949423   1.000000
   12       -4.906312   1.000000
   13       -4.807881   1.000000
   14       -4.727196   1.000000
   15       -4.714924   1.000000
   16       -4.657110   1.000000
   17       -4.484791   1.000000
   18       -4.441794   1.000000
   19       -4.394805   1.000000
   20       -4.292894   1.000000
   21       -4.292616   1.000000
   22       -4.237735   1.000000
   23       -4.211412   1.000000
   24       -4.143618   1.000000
   25       -4.071992   1.000000
   26       -4.051985   1.000000
   27       -3.977030   1.000000
   28       -3.915236   1.000000
   29       -3.915111   1.000000
   30       -3.845673   1.000000
   31       -3.789481   1.000000
   32       -3.755478   1.000000
   33       -3.688208   1.000000
   34       -3.678355   1.000000
   35       -3.653126   1.000000
   36       -3.614617   1.000000
   37       -3.568461   1.000000
   38       -3.531795   1.000000
   39       -3.497667   1.000000
   40       -3.463576   1.000000
   41       -3.442516   1.000000
   42       -3.348725   1.000000
   43       -3.316274   1.000000
   44       -3.257751   1.000000
   45       -3.256926   1.000000
   46       -3.222485   1.000000
   47       -3.174466   1.000000
   48       -3.160471   1.000000
   49       -3.146964   1.000000
   50       -3.135178   1.000000
   51       -3.097752   1.000000
   52       -3.084903   1.000000
   53       -3.058893   1.000000
   54       -3.045415   1.000000
   55       -3.024251   1.000000
   56       -2.972410   1.000000
   57       -2.956926   1.000000
   58       -2.925493   1.000000
   59       -2.899265   1.000000
   60       -2.876413   1.000000
   61       -2.811169   1.000000
   62       -2.806474   1.000000
   63       -2.763354   1.000000
   64       -2.724670   1.000000
   65       -2.684273   1.000000
   66       -2.626900   1.000000
   67       -2.575378   1.000000
   68       -2.548164   1.000000
   69       -2.526009   1.000000
   70       -2.503249   1.000000
   71       -2.499615   1.000000
   72       -2.485599   1.000000
   73       -2.454782   1.000000
   74       -2.449195   1.000000
   75       -2.403918   1.000000
   76       -2.390113   1.000000
   77       -2.369006   1.000000
   78       -2.337629   1.000000
   79       -2.284976   1.000000
   80       -2.276572   1.000000
   81       -2.226194   1.000000
   82       -2.168768   1.000000
   83       -2.152568   1.000000
   84       -2.103974   1.000000
   85       -2.094881   1.000000
   86       -2.046931   1.000000
   87       -2.035949   1.000000
   88       -2.009703   1.000000
   89       -1.960189   1.000000
   90       -1.669988   1.000000
   91       -1.117998   1.000124
   92       -0.721011   1.020897
   93       -0.715551   1.017159
   94       -0.269988  -0.034827
   95       -0.215192  -0.024653
   96        0.065361  -0.000111
   97        0.806502  -0.000000
   98        0.853837  -0.000000
   99        1.253852  -0.000000
  100        1.944241  -0.000000
  101        2.156459  -0.000000
  102        2.359519  -0.000000
  103        3.356500  -0.000000
  104        3.784172  -0.000000
  105        4.026167  -0.000000
  106        4.355647  -0.000000
  107        4.683581  -0.000000
  108        4.931313   0.000000
  109        4.960115   0.000000
  110        5.500302   0.000000
  111        5.567800   0.000000
  112        5.675328   0.000000
 
  0.0000000E+00  0.2000000E+00  0.0000000E+00  0.8000000E-01
    1      -25.103355   1.000000
    2      -10.608008   1.000000
    3       -8.825807   1.000000
    4       -8.062840   1.000000
    5       -7.709596   1.000000
    6       -7.690115   1.000000
    7       -7.266464   1.000000
    8       -5.919432   1.000000
    9       -5.447455   1.000000
   10       -5.210029   1.000000
   11       -5.108335   1.000000
   12       -5.075095   1.000000
   13       -5.032065   1.000000
   14       -4.925573   1.000000
   15       -4.894007   1.000000
   16       -4.771941   1.000000
   17       -4.672038   1.000000
   18       -4.573623   1.000000
   19       -4.513036   1.000000
   20       -4.506322   1.000000
   21       -4.471702   1.000000
   22       -4.456873   1.000000
   23       -4.444500   1.000000
   24       -4.402893   1.000000
   25       -4.231208   1.000000
   26       -4.230817   1.000000
   27       -4.110581   1.000000
   28       -3.877502   1.000000
   29       -3.862944   1.000000
   30       -3.673934   1.000000
   31       -3.604682   1.000000
   32       -3.550236   1.000000
   33       -3.500855   1.000000
   34       -3.468661   1.000000
   35       -3.435248   1.000000
   36       -3.428335   1.000000
   37       -3.403167   1.000000
   38       -3.353354   1.000000
   39       -3.331281   1.000000
   40       -3.309289   1.000000
   41       -3.289865   1.000000
   42       -3.269876   1.000000
   43       -3.248922   1.000000
   44       -3.236819   1.000000
   45       -3.228475   1.000000
   46       -3.214826   1.000000
   47       -3.203623   1.000000
   48       -3.172894   1.000000
   49       -3.162870   1.000000
   50       -3.117429   1.000000
   51       -3.102999   1.000000
   52       -3.032307   1.000000
   53       -3.002726   1.000000
   54       -2.940481   1.000000
   55       -2.868401   1.000000
   56       -2.801397   1.000000
   57       -2.699645   1.000000
   58       -2.693552   1.000000
   59       -2.667239   1.000000
   60       -2.635274   1.000000
   61       -2.587595   1.000000
   62       -2.558903   1.000000
   63       -2.516369   1.000000
   64       -2.499507   1.000000
   65       -2.472378   1.000000
   66       -2.461934   1.000000
   67       -2.435303   1.000000
   68       -2.394050   1.000000
   69       -2.391990   1.000000
   70       -2.288558   1.000000
   71       -2.252507   1.000000
   72       -2.235268   1.000000
   73       -2.229395   1.000000
   74       -2.208732   1.000000
   75       -2.208474   1.000000
   76       -2.182475   1.000000
   77       -2.163169   1.000000
   78       -2.158845   1.000000
   79       -2.141768   1.000000
   80       -2.102404   1.000000
   81       -2.093408   1.000000
   82       -2.084503   1.000000
   83       -2.049987   1.000000
   84       -2.039143   1.000000
   85       -2.038788   1.000000
   86       -2.010088   1.000000
   87       -1.999785   1.000000
   88       -1.956136   1.000000
   89       -1.916101   1.000000
   90       -1.469123   1.000000
   91       -0.809006   1.031649
   92       -0.762588   1.034984
   93       -0.692457   0.995133
   94       -0.262450  -0.033999
   95       -0.223733  -0.026615
   96       -0.081843  -0.003516
   97        0.661430  -0.000000
   98        0.687289  -0.000000
   99        1.238699  -0.000000
  100        1.668121  -0.000000
  101        1.819863  -0.000000
  102        2.138984  -0.000000
  103        2.627539  -0.000000
  104        2.809667  -0.000000
  105        3.359648  -0.000000
  106        3.798356  -0.000000
  107        3.917357  -0.000000
  108        3.925157  -0.000000
  109        4.325220  -0.000000
  110        4.647066  -0.000000
  111        4.697344  -0.000000
  112        4.759404  -0.000000
 
  0.2000000E+00  0.2000000E+00  0.0000000E+00  0.8000000E-01
    1      -25.103346   1.000000
    2      -10.608005   1.000000
    3       -8.825809   1.000000
    4       -8.062844   1.000000
    5       -7.710179   1.000000
    6       -7.689703   1.000000
    7       -7.266467   1.000000
    8       -5.919431   1.000000
    9       -5.447495   1.000000
   10       -5.210019   1.000000
   11       -5.108344   1.000000
   12       -5.075056   1.000000
   13       -5.032042   1.000000
   14       -4.925586   1.000000
   15       -4.893995   1.000000
   16       -4.771901   1.000000
   17       -4.672084   1.000000
   18       -4.573623   1.000000
   19       -4.513018   1.000000
   20       -4.506323   1.000000
   21       -4.471695   1.000000
   22       -4.456923   1.000000
   23       -4.444482   1.000000
   24       -4.402880   1.000000
   25       -4.231231   1.000000
   26       -4.230798   1.000000
   27       -4.110591   1.000000
   28       -3.877517   1.000000
   29       -3.862924   1.000000
   30       -3.673919   1.000000
   31       -3.604602   1.000000
   32       -3.550206   1.000000
   33       -3.500757   1.000000
   34       -3.468704   1.000000
   35       -3.435217   1.000000
   36       -3.428356   1.000000
   37       -3.403123   1.000000
   38       -3.353317   1.000000
   39       -3.331245   1.000000
   40       -3.309250   1.000000
   41       -3.289973   1.000000
   42       -3.269941   1.000000
   43       -3.248883   1.000000
   44       -3.236822   1.000000
   45       -3.228506   1.000000
   46       -3.214885   1.000000
   47       -3.203607   1.000000
   48       -3.172932   1.000000
   49       -3.162890   1.000000
   50       -3.117373   1.000000
   51       -3.102963   1.000000
   52       -3.032411   1.000000
   53       -3.002731   1.000000
   54       -2.940547   1.000000
   55       -2.868361   1.000000
   56       -2.801416   1.000000
   57       -2.699655   1.000000
   58       -2.693601   1.000000
   59       -2.667243   1.000000
   60       -2.635209   1.000000
   61       -2.587571   1.000000
   62       -2.558958   1.000000
   63       -2.516358   1.000000
   64       -2.499555   1.000000
   65       -2.472336   1.000000
   66       -2.461899   1.000000
   67       -2.435326   1.000000
   68       -2.394090   1.000000
   69       -2.391972   1.000000
   70       -2.288573   1.000000
   71       -2.252520   1.000000
   72       -2.235318   1.000000
   73       -2.229382   1.000000
   74       -2.208718   1.000000
   75       -2.208490   1.000000
   76       -2.182545   1.000000
   77       -2.163224   1.000000
   78       -2.158928   1.000000
   79       -2.141784   1.000000
   80       -2.102335   1.000000
   81       -2.093498   1.000000
   82       -2.084499   1.000000
   83       -2.050071   1.000000
   84       -2.039181   1.000000
   85       -2.038719   1.000000
   86       -2.009986   1.000000
   87       -1.999845   1.000000
   88       -1.956030   1.000000
   89       -1.916043   1.000000
   90       -1.469099   1.000000
   91       -0.809014   1.031647
   92       -0.762521   1.034978
   93       -0.692430   0.995101
   94       -0.262361  -0.033988
   95       -0.223761  -0.026621
   96       -0.081793  -0.003512
   97        0.661643  -0.000000
   98        0.687200  -0.000000
   99        1.238680  -0.000000
  100        1.667845  -0.000000
  101        1.819969  -0.000000
  102        2.138907  -0.000000
  103        2.627882  -0.000000
  104        2.809449  -0.000000
  105        3.359701  -0.000000
  106        3.798354  -0.000000
  107        3.917361  -0.000000
  108        3.925068  -0.000000
  109        4.325345  -0.000000
  110        4.647278  -0.000000
  111        4.697119  -0.000000
  112        4.759693  -0.000000
 
  0.4000000E+00  0.2000000E+00  0.0000000E+00  0.8000000E-01
    1      -25.103251   1.000000
    2      -10.587548   1.000000
    3       -8.303337   1.000000
    4       -7.844576   1.000000
    5       -7.732084   1.000000
    6       -7.705504   1.000000
    7       -6.855832   1.000000
    8       -5.783769   1.000000
    9       -5.760381   1.000000
   10       -5.475648   1.000000
   11       -5.194588   1.000000
   12       -5.130641   1.000000
   13       -4.858323   1.000000
   14       -4.689390   1.000000
   15       -4.674665   1.000000
   16       -4.657429   1.000000
   17       -4.605981   1.000000
   18       -4.382988   1.000000
   19       -4.373124   1.000000
   20       -4.357666   1.000000
   21       -4.328079   1.000000
   22       -4.294447   1.000000
   23       -4.273999   1.000000
   24       -4.210021   1.000000
   25       -4.120376   1.000000
   26       -4.084729   1.000000
   27       -4.004912   1.000000
   28       -3.925356   1.000000
   29       -3.870545   1.000000
   30       -3.773251   1.000000
   31       -3.764048   1.000000
   32       -3.738588   1.000000
   33       -3.656479   1.000000
   34       -3.635366   1.000000
   35       -3.574112   1.000000
   36       -3.548012   1.000000
   37       -3.528431   1.000000
   38       -3.496294   1.000000
   39       -3.479105   1.000000
   40       -3.451389   1.000000
   41       -3.391022   1.000000
   42       -3.325369   1.000000
   43       -3.306021   1.000000
   44       -3.295071   1.000000
   45       -3.253772   1.000000
   46       -3.219712   1.000000
   47       -3.207196   1.000000
   48       -3.168124   1.000000
   49       -3.137715   1.000000
   50       -3.117206   1.000000
   51       -3.073103   1.000000
   52       -3.035733   1.000000
   53       -3.032269   1.000000
   54       -2.987913   1.000000
   55       -2.949380   1.000000
   56       -2.922500   1.000000
   57       -2.904485   1.000000
   58       -2.885299   1.000000
   59       -2.857603   1.000000
   60       -2.837233   1.000000
   61       -2.792649   1.000000
   62       -2.770960   1.000000
   63       -2.750608   1.000000
   64       -2.736226   1.000000
   65       -2.713428   1.000000
   66       -2.587536   1.000000
   67       -2.546699   1.000000
   68       -2.509365   1.000000
   69       -2.501829   1.000000
   70       -2.478885   1.000000
   71       -2.439835   1.000000
   72       -2.405554   1.000000
   73       -2.383706   1.000000
   74       -2.369565   1.000000
   75       -2.342976   1.000000
   76       -2.283970   1.000000
   77       -2.246629   1.000000
   78       -2.217848   1.000000
   79       -2.204142   1.000000
   80       -2.174419   1.000000
   81       -2.158083   1.000000
   82       -2.154390   1.000000
   83       -2.140372   1.000000
   84       -2.105036   1.000000
   85       -2.073112   1.000000
   86       -2.048525   1.000000
   87       -2.022378   1.000000
   88       -1.863327   1.000000
   89       -1.852939   1.000000
   90       -1.775050   1.000000
   91       -1.672720   1.000000
   92       -1.529603   1.000000
   93       -0.597638   0.774637
   94       -0.479154   0.298710
   95        0.107613  -0.000033
   96        0.777463  -0.000000
   97        1.023722  -0.000000
   98        1.109964  -0.000000
   99        1.555112  -0.000000
  100        1.917923  -0.000000
  101        2.079812  -0.000000
  102        2.395665  -0.000000
  103        2.739421  -0.000000
  104        2.874336  -0.000000
  105        3.928572  -0.000000
  106        4.161111  -0.000000
  107        4.388580  -0.000000
  108        4.563867  -0.000000
  109        4.870078  -0.000000
  110        5.211993   0.000000
  111        5.299210   0.000000
  112        5.508927   0.000000
 
 -0.4000000E+00  0.2000000E+00  0.0000000E+00  0.8000000E-01
    1      -25.103572   1.000000
    2      -10.575705   1.000000
    3       -7.955115   1.000000
    4       -7.757273   1.000000
    5       -7.718058   1.000000
    6       -7.084463   1.000000
    7       -6.994153   1.000000
    8       -6.048662   1.000000
    9       -5.956536   1.000000
   10       -5.852951   1.000000
   11       -5.153036   1.000000
   12       -4.855811   1.000000
   13       -4.825845   1.000000
   14       -4.527680   1.000000
   15       -4.471193   1.000000
   16       -4.415326   1.000000
   17       -4.407830   1.000000
   18       -4.355292   1.000000
   19       -4.301452   1.000000
   20       -4.237768   1.000000
   21       -4.190095   1.000000
   22       -4.117850   1.000000
   23       -4.088052   1.000000
   24       -4.058525   1.000000
   25       -4.052483   1.000000
   26       -4.036733   1.000000
   27       -4.019051   1.000000
   28       -3.985682   1.000000
   29       -3.946880   1.000000
   30       -3.872374   1.000000
   31       -3.853094   1.000000
   32       -3.829431   1.000000
   33       -3.796709   1.000000
   34       -3.773716   1.000000
   35       -3.738369   1.000000
   36       -3.693386   1.000000
   37       -3.647168   1.000000
   38       -3.591062   1.000000
   39       -3.568417   1.000000
   40       -3.509210   1.000000
   41       -3.487497   1.000000
   42       -3.440891   1.000000
   43       -3.438237   1.000000
   44       -3.405291   1.000000
   45       -3.387576   1.000000
   46       -3.368791   1.000000
   47       -3.310735   1.000000
   48       -3.292645   1.000000
   49       -3.224026   1.000000
   50       -3.209818   1.000000
   51       -3.169528   1.000000
   52       -3.140521   1.000000
   53       -3.092799   1.000000
   54       -3.081585   1.000000
   55       -3.057658   1.000000
   56       -3.018583   1.000000
   57       -2.967459   1.000000
   58       -2.860292   1.000000
   59       -2.835462   1.000000
   60       -2.806919   1.000000
   61       -2.788542   1.000000
   62       -2.746689   1.000000
   63       -2.719015   1.000000
   64       -2.709967   1.000000
   65       -2.666499   1.000000
   66       -2.641375   1.000000
   67       -2.607091   1.000000
   68       -2.573127   1.000000
   69       -2.557694   1.000000
   70       -2.548194   1.000000
   71       -2.488835   1.000000
   72       -2.462356   1.000000
   73       -2.428039   1.000000
   74       -2.405423   1.000000
   75       -2.392244   1.000000
   76       -2.355529   1.000000
   77       -2.311286   1.000000
   78       -2.296596   1.000000
   79       -2.285524   1.000000
   80       -2.278114   1.000000
   81       -2.253930   1.000000
   82       -2.197877   1.000000
   83       -2.182054   1.000000
   84       -2.155390   1.000000
   85       -2.132575   1.000000
   86       -2.116840   1.000000
   87       -2.099610   1.000000
   88       -2.047553   1.000000
   89       -2.023579   1.000000
   90       -1.774355   1.000000
   91       -1.608136   1.000000
   92       -1.467339   1.000000
   93       -1.099403   1.000205
   94       -0.419394   0.106341
   95        0.240878  -0.000000
   96        0.873074  -0.000000
   97        1.115299  -0.000000
   98        1.411977  -0.000000
   99        1.707298  -0.000000
  100        2.044242  -0.000000
  101        2.508580  -0.000000
  102        2.981739  -0.000000
  103        3.286900  -0.000000
  104        3.721408  -0.000000
  105        4.072676  -0.000000
  106        4.157670  -0.000000
  107        4.677026  -0.000000
  108        5.006721   0.000000
  109        5.089893   0.000000
  110        5.221740   0.000000
  111        5.402131   0.000000
  112        5.578015   0.000000
 
 -0.2000000E+00  0.2000000E+00  0.0000000E+00  0.8000000E-01
    1      -25.103255   1.000000
    2      -10.587550   1.000000
    3       -8.303329   1.000000
    4       -7.844566   1.000000
    5       -7.731482   1.000000
    6       -7.706069   1.000000
    7       -6.855823   1.000000
    8       -5.783779   1.000000
    9       -5.760375   1.000000
   10       -5.475644   1.000000
   11       -5.194579   1.000000
   12       -5.130660   1.000000
   13       -4.858345   1.000000
   14       -4.689435   1.000000
   15       -4.674674   1.000000
   16       -4.657402   1.000000
   17       -4.605998   1.000000
   18       -4.382961   1.000000
   19       -4.373103   1.000000
   20       -4.357710   1.000000
   21       -4.328075   1.000000
   22       -4.294430   1.000000
   23       -4.274007   1.000000
   24       -4.210021   1.000000
   25       -4.120422   1.000000
   26       -4.084725   1.000000
   27       -4.004858   1.000000
   28       -3.925346   1.000000
   29       -3.870572   1.000000
   30       -3.773270   1.000000
   31       -3.764091   1.000000
   32       -3.738641   1.000000
   33       -3.656540   1.000000
   34       -3.635381   1.000000
   35       -3.574058   1.000000
   36       -3.548051   1.000000
   37       -3.528426   1.000000
   38       -3.496353   1.000000
   39       -3.479090   1.000000
   40       -3.451429   1.000000
   41       -3.391035   1.000000
   42       -3.325422   1.000000
   43       -3.306009   1.000000
   44       -3.295097   1.000000
   45       -3.253760   1.000000
   46       -3.219656   1.000000
   47       -3.207221   1.000000
   48       -3.168093   1.000000
   49       -3.137702   1.000000
   50       -3.117154   1.000000
   51       -3.073062   1.000000
   52       -3.035721   1.000000
   53       -3.032164   1.000000
   54       -2.987893   1.000000
   55       -2.949334   1.000000
   56       -2.922402   1.000000
   57       -2.904471   1.000000
   58       -2.885247   1.000000
   59       -2.857631   1.000000
   60       -2.837220   1.000000
   61       -2.792558   1.000000
   62       -2.771007   1.000000
   63       -2.750599   1.000000
   64       -2.736202   1.000000
   65       -2.713444   1.000000
   66       -2.587508   1.000000
   67       -2.546701   1.000000
   68       -2.509238   1.000000
   69       -2.501758   1.000000
   70       -2.478793   1.000000
   71       -2.439796   1.000000
   72       -2.405504   1.000000
   73       -2.383709   1.000000
   74       -2.369608   1.000000
   75       -2.342993   1.000000
   76       -2.283986   1.000000
   77       -2.246644   1.000000
   78       -2.217891   1.000000
   79       -2.204157   1.000000
   80       -2.174454   1.000000
   81       -2.158135   1.000000
   82       -2.154375   1.000000
   83       -2.140399   1.000000
   84       -2.105073   1.000000
   85       -2.073150   1.000000
   86       -2.048572   1.000000
   87       -2.022402   1.000000
   88       -1.863356   1.000000
   89       -1.852968   1.000000
   90       -1.775053   1.000000
   91       -1.672788   1.000000
   92       -1.529632   1.000000
   93       -0.597554   0.774348
   94       -0.479256   0.299100
   95        0.107583  -0.000033
   96        0.777201  -0.000000
   97        1.023995  -0.000000
   98        1.109873  -0.000000
   99        1.555047  -0.000000
  100        1.917951  -0.000000
  101        2.080002  -0.000000
  102        2.395662  -0.000000
  103        2.739579  -0.000000