/home/zulissi/software/vasp/5.4.4_impi_cuda_patch0518_intel0818/bin/:/home/zulissi/software/vasp/5.4.4_impi_cuda_patch0518_intel0818/bin:/usr/local/cuda-9.0/samples-bin:/usr/local/cuda-9.0/bin:/opt/ohpc/pub/intel/intel18/compilers_and_libraries_2018.3.222/linux/mpi/intel64/bin_ohpc:/opt/ohpc/pub/intel/intel18/compilers_and_libraries_2018.3.222/linux/mpi/intel64/bin:/opt/ohpc/pub/intel/intel18/compilers_and_libraries_2018.3.222/linux/bin/intel64:/home/zulissi/GASpy_conda/bin:/opt/ohpc/pub/python/anaconda2/bin:/usr/lib64/qt-3.3/bin:/usr/local/bin:/usr/bin:/usr/local/sbin:/usr/sbin:/home/katsuyut/.local/bin:/home/katsuyut/bin:/home/katsuyut/.local/bin:/home/katsuyut/bin
/tmp
./run_vasp.py
/home/katsuyut/5.4.4
 running on   16 total cores
 distrk:  each k-point on   16 cores,    1 groups
 distr:  one band on    4 cores,    4 groups
 using from now: INCAR     
 vasp.5.4.4.18Apr17-6-g9f103f2a35 (build Aug 07 2018 15:16:41) complex          
  
 POSCAR found :  3 types and      18 ions
 scaLAPACK will be used

 ----------------------------------------------------------------------------- 
|                                                                             |
|  ADVICE TO THIS USER RUNNING 'VASP/VAMP'   (HEAR YOUR MASTER'S VOICE ...):  |
|                                                                             |
|      You enforced a specific xc-type in the INCAR file,                     |
|      a different type was found on the POTCAR file                          |
|          I HOPE YOU KNOW, WHAT YOU ARE  DOING                               |
|                                                                             |
 ----------------------------------------------------------------------------- 

 LDA part: xc-table for Pade appr. of Perdew
 POSCAR, INCAR and KPOINTS ok, starting setup
 FFT: planning ...
 WAVECAR not read
 entering main loop
       N       E                     dE             d eps       ncg     rms          rms(c)
DAV:   1     0.162221621869E+04    0.16222E+04   -0.62873E+04  2912   0.150E+03
DAV:   2     0.156585831081E+03   -0.14656E+04   -0.14156E+04  2912   0.390E+02
DAV:   3    -0.500051557543E+02   -0.20659E+03   -0.19192E+03  4040   0.190E+02
DAV:   4    -0.755119754614E+02   -0.25507E+02   -0.24392E+02  4264   0.695E+01
DAV:   5    -0.767117297196E+02   -0.11998E+01   -0.11437E+01  4192   0.175E+01    0.306E+01
DAV:   6    -0.717096268847E+02    0.50021E+01   -0.15493E+02  3528   0.158E+02    0.188E+01
DAV:   7    -0.640986442785E+02    0.76110E+01   -0.48467E+01  3376   0.102E+02    0.617E+00
DAV:   8    -0.639969961337E+02    0.10165E+00   -0.11864E+01  4272   0.618E+01    0.391E+00
DAV:   9    -0.639347762790E+02    0.62220E-01   -0.89143E+00  3896   0.505E+01    0.359E+00
DAV:  10    -0.638479265684E+02    0.86850E-01   -0.34156E+00  3936   0.327E+01    0.292E+00
DAV:  11    -0.637905166485E+02    0.57410E-01   -0.98867E-01  3512   0.127E+01    0.145E+00
DAV:  12    -0.637794145641E+02    0.11102E-01   -0.34629E-01  3344   0.867E+00    0.699E-01
DAV:  13    -0.637729787572E+02    0.64358E-02   -0.70640E-02  3664   0.451E+00    0.344E-01
DAV:  14    -0.637725077710E+02    0.47099E-03   -0.40557E-02  3512   0.285E+00    0.226E-01
DAV:  15    -0.637712079916E+02    0.12998E-02   -0.10668E-02  3600   0.187E+00    0.161E-01
DAV:  16    -0.637704548043E+02    0.75319E-03   -0.41393E-03  3576   0.147E+00    0.101E-01
DAV:  17    -0.637702943063E+02    0.16050E-03   -0.12732E-03  3432   0.649E-01    0.578E-02
DAV:  18    -0.637705616929E+02   -0.26739E-03   -0.13563E-03  3904   0.597E-01    0.594E-02
DAV:  19    -0.637706363454E+02   -0.74652E-04   -0.21114E-04  2080   0.255E-01
   1 F= -.63770636E+02 E0= -.63778255E+02  d E =0.228555E-01
Cu_111_u2_no01_CO_n1_d8.traj, -63.77825484
