 vasp.5.4.4.18Apr17-6-g9f103f2a35 (build Aug 07 2018 15:16:41) complex          
  
 executed on             LinuxIFC date 2019.10.18  01:18:26
 running on   16 total cores
 distrk:  each k-point on   16 cores,    1 groups
 distr:  one band on NCORES_PER_BAND=   4 cores,    4 groups


--------------------------------------------------------------------------------------------------------


 INCAR:
 POTCAR:    PAW_PBE Cu 22Jun2005                  
 POTCAR:    PAW_PBE C 08Apr2002                   
 POTCAR:    PAW_PBE O 08Apr2002                   
 POTCAR:    PAW_PBE Cu 22Jun2005                  
   VRHFIN =Cu: d10 p1                                                           
   LEXCH  = PE                                                                  
   EATOM  =  1390.9808 eV,  102.2342 Ry                                         
                                                                                
   TITEL  = PAW_PBE Cu 22Jun2005                                                
   LULTRA =        F    use ultrasoft PP ?                                      
   IUNSCR =        1    unscreen: 0-lin 1-nonlin 2-no                           
   RPACOR =    2.000    partial core radius                                     
   POMASS =   63.546; ZVAL   =   11.000    mass and valenz                      
   RCORE  =    2.300    outmost cutoff radius                                   
   RWIGS  =    2.200; RWIGS  =    1.164    wigner-seitz radius (au A)           
   ENMAX  =  295.446; ENMIN  =  221.585 eV                                      
   ICORE  =        3    local potential                                         
   LCOR   =        T    correct aug charges                                     
   LPAW   =        T    paw PP                                                  
   EAUG   =  586.980                                                            
   DEXC   =    0.000                                                            
   RMAX   =    2.344    core radius for proj-oper                               
   RAUG   =    1.300    factor for augmentation sphere                          
   RDEP   =    2.302    radius for radial grids                                 
   RDEPT  =    1.771    core radius for aug-charge                              
                                                                                
   Atomic configuration                                                         
    9 entries                                                                   
     n  l   j            E        occ.                                          
     1  0  0.50     -8850.2468   2.0000                                         
     2  0  0.50     -1062.3498   2.0000                                         
     2  1  1.50      -916.8226   6.0000                                         
     3  0  0.50      -114.6929   2.0000                                         
     3  1  1.50       -72.1325   6.0000                                         
     3  2  2.50        -5.0394  10.0000                                         
     4  0  0.50        -4.6097   1.0000                                         
     4  1  0.50        -4.0817   0.0000                                         
     4  3  2.50        -1.3606   0.0000                                         
   Description                                                                  
     l       E           TYP  RCUT    TYP  RCUT                                 
     2     -5.0393973     23  2.200                                             
     2     10.8846608     23  2.200                                             
     0     -4.6097109     23  2.200                                             
     0      8.2520465     23  2.200                                             
     1     -2.7211652     23  2.200                                             
     1     21.7055443     23  2.200                                             
     3      2.7211652     23  2.300                                             
  local pseudopotential read in
  partial core-charges read in
  partial kinetic energy density read in
  atomic valenz-charges read in
  non local Contribution for L=           2  read in
    real space projection operators read in
  non local Contribution for L=           2  read in
    real space projection operators read in
  non local Contribution for L=           0  read in
    real space projection operators read in
  non local Contribution for L=           0  read in
    real space projection operators read in
  non local Contribution for L=           1  read in
    real space projection operators read in
  non local Contribution for L=           1  read in
    real space projection operators read in
    PAW grid and wavefunctions read in
 
   number of l-projection  operators is LMAX  =           6
   number of lm-projection operators is LMMAX =          18
 
 POTCAR:    PAW_PBE C 08Apr2002                   
   VRHFIN =C: s2p2                                                              
   LEXCH  = PE                                                                  
   EATOM  =   147.1560 eV,   10.8157 Ry                                         
                                                                                
   TITEL  = PAW_PBE C 08Apr2002                                                 
   LULTRA =        F    use ultrasoft PP ?                                      
   IUNSCR =        1    unscreen: 0-lin 1-nonlin 2-no                           
   RPACOR =    1.200    partial core radius                                     
   POMASS =   12.011; ZVAL   =    4.000    mass and valenz                      
   RCORE  =    1.500    outmost cutoff radius                                   
   RWIGS  =    1.630; RWIGS  =    0.863    wigner-seitz radius (au A)           
   ENMAX  =  400.000; ENMIN  =  300.000 eV                                      
   ICORE  =        2    local potential                                         
   LCOR   =        T    correct aug charges                                     
   LPAW   =        T    paw PP                                                  
   EAUG   =  644.873                                                            
   DEXC   =    0.000                                                            
   RMAX   =    1.529    core radius for proj-oper                               
   RAUG   =    1.300    factor for augmentation sphere                          
   RDEP   =    1.501    radius for radial grids                                 
   RDEPT  =    1.300    core radius for aug-charge                              
                                                                                
   Atomic configuration                                                         
    4 entries                                                                   
     n  l   j            E        occ.                                          
     1  0  0.50      -273.3789   2.0000                                         
     2  0  0.50       -13.7508   2.0000                                         
     2  1  0.50        -5.2854   2.0000                                         
     3  2  1.50        -5.4423   0.0000                                         
   Description                                                                  
     l       E           TYP  RCUT    TYP  RCUT                                 
     0    -13.7508458     23  1.200                                             
     0     -8.2022199     23  1.200                                             
     1     -5.2854383     23  1.500                                             
     1     34.0145650     23  1.500                                             
     2     -5.4423304      7  1.500                                             
  local pseudopotential read in
  partial core-charges read in
  partial kinetic energy density read in
  atomic valenz-charges read in
  non local Contribution for L=           0  read in
    real space projection operators read in
  non local Contribution for L=           0  read in
    real space projection operators read in
  non local Contribution for L=           1  read in
    real space projection operators read in
  non local Contribution for L=           1  read in
    real space projection operators read in
    PAW grid and wavefunctions read in
 
   number of l-projection  operators is LMAX  =           4
   number of lm-projection operators is LMMAX =           8
 
 POTCAR:    PAW_PBE O 08Apr2002                   
   VRHFIN =O: s2p4                                                              
   LEXCH  = PE                                                                  
   EATOM  =   432.3788 eV,   31.7789 Ry                                         
                                                                                
   TITEL  = PAW_PBE O 08Apr2002                                                 
   LULTRA =        F    use ultrasoft PP ?                                      
   IUNSCR =        1    unscreen: 0-lin 1-nonlin 2-no                           
   RPACOR =    1.200    partial core radius                                     
   POMASS =   16.000; ZVAL   =    6.000    mass and valenz                      
   RCORE  =    1.520    outmost cutoff radius                                   
   RWIGS  =    1.550; RWIGS  =    0.820    wigner-seitz radius (au A)           
   ENMAX  =  400.000; ENMIN  =  300.000 eV                                      
   ICORE  =        2    local potential                                         
   LCOR   =        T    correct aug charges                                     
   LPAW   =        T    paw PP                                                  
   EAUG   =  605.392                                                            
   DEXC   =    0.000                                                            
   RMAX   =    1.553    core radius for proj-oper                               
   RAUG   =    1.300    factor for augmentation sphere                          
   RDEP   =    1.550    radius for radial grids                                 
   RDEPT  =    1.329    core radius for aug-charge                              
                                                                                
   Atomic configuration                                                         
    4 entries                                                                   
     n  l   j            E        occ.                                          
     1  0  0.50      -514.6923   2.0000                                         
     2  0  0.50       -23.9615   2.0000                                         
     2  1  0.50        -9.0305   4.0000                                         
     3  2  1.50        -9.5241   0.0000                                         
   Description                                                                  
     l       E           TYP  RCUT    TYP  RCUT                                 
     0    -23.9615318     23  1.200                                             
     0     -9.5240782     23  1.200                                             
     1     -9.0304911     23  1.520                                             
     1      8.1634956     23  1.520                                             
     2     -9.5240782      7  1.500                                             
  local pseudopotential read in
  partial core-charges read in
  partial kinetic energy density read in
  kinetic energy density of atom read in
  atomic valenz-charges read in
  non local Contribution for L=           0  read in
    real space projection operators read in
  non local Contribution for L=           0  read in
    real space projection operators read in
  non local Contribution for L=           1  read in
    real space projection operators read in
  non local Contribution for L=           1  read in
    real space projection operators read in
    PAW grid and wavefunctions read in
 
   number of l-projection  operators is LMAX  =           4
   number of lm-projection operators is LMMAX =           8
 
 Optimization of the real space projectors (new method)

 maximal supplied QI-value         = 16.25
 optimisation between [QCUT,QGAM] = [  9.43, 19.01] = [ 24.88,101.24] Ry 
 Optimized for a Real-space Cutoff    1.66 Angstroem

   l    n(q)    QCUT    max X(q) W(low)/X(q) W(high)/X(q)  e(spline) 
   2      8     9.426     4.610    0.15E-03    0.59E-04    0.31E-06
   2      8     9.426     8.522    0.24E-03    0.87E-04    0.54E-06
   0      9     9.426    51.609    0.44E-04    0.64E-05    0.15E-06
   0      9     9.426    27.747    0.41E-04    0.65E-05    0.15E-06
   1      9     9.426    20.408    0.73E-04    0.11E-03    0.16E-06
   1      9     9.426    13.425    0.63E-04    0.98E-04    0.15E-06
 Optimization of the real space projectors (new method)

 maximal supplied QI-value         = 25.13
 optimisation between [QCUT,QGAM] = [  9.55, 19.10] = [ 25.54,102.17] Ry 
 Optimized for a Real-space Cutoff    1.39 Angstroem

   l    n(q)    QCUT    max X(q) W(low)/X(q) W(high)/X(q)  e(spline) 
   0      8     9.551   115.676    0.39E-03    0.54E-03    0.29E-06
   0      8     9.551    87.132    0.39E-03    0.54E-03    0.28E-06
   1      7     9.551     4.429    0.35E-03    0.51E-04    0.29E-06
   1      7     9.551     2.733    0.22E-03    0.42E-04    0.31E-06
 Optimization of the real space projectors (new method)

 maximal supplied QI-value         = 24.76
 optimisation between [QCUT,QGAM] = [  9.41, 19.06] = [ 24.78,101.75] Ry 
 Optimized for a Real-space Cutoff    1.48 Angstroem

   l    n(q)    QCUT    max X(q) W(low)/X(q) W(high)/X(q)  e(spline) 
   0      8     9.407    20.381    0.17E-03    0.13E-03    0.41E-06
   0      8     9.407    15.268    0.19E-03    0.15E-03    0.42E-06
   1      8     9.407     5.946    0.36E-03    0.29E-03    0.38E-06
   1      8     9.407     5.382    0.31E-03    0.24E-03    0.34E-06

 ----------------------------------------------------------------------------- 
|                                                                             |
|  ADVICE TO THIS USER RUNNING 'VASP/VAMP'   (HEAR YOUR MASTER'S VOICE ...):  |
|                                                                             |
|      You enforced a specific xc-type in the INCAR file,                     |
|      a different type was found on the POTCAR file                          |
|          I HOPE YOU KNOW, WHAT YOU ARE  DOING                               |
|                                                                             |
 ----------------------------------------------------------------------------- 

  PAW_PBE Cu 22Jun2005                  :
 energy of atom  1       EATOM=-1390.9808
 kinetic energy error for atom=    0.0356 (will be added to EATOM!!)
  PAW_PBE C 08Apr2002                   :
 energy of atom  2       EATOM= -147.1560
 kinetic energy error for atom=    0.0854 (will be added to EATOM!!)
  PAW_PBE O 08Apr2002                   :
 energy of atom  3       EATOM= -432.3788
 kinetic energy error for atom=    0.3782 (will be added to EATOM!!)
 
 
 POSCAR: Cu  C  O                                
  positions in cartesian coordinates
  No initial velocities read in
 exchange correlation table for  LEXCH =        9
   RHO(1)=    0.500       N(1)  =     2000
   RHO(2)=  100.500       N(2)  =     4000
 


--------------------------------------------------------------------------------------------------------


 ion  position               nearest neighbor table
   1  0.000  0.000  0.379-   5 2.60   3 2.60   3 2.60   4 2.60   4 2.60   2 2.60   2 2.60   6 2.60
                             7 2.60
   2  0.500  0.000  0.379-   6 2.60   4 2.60   3 2.60   4 2.60   3 2.60   1 2.60   1 2.60   5 2.60
                             8 2.60
   3  0.000  0.500  0.379-   7 2.60   1 2.60   1 2.60   2 2.60   2 2.60   4 2.60   4 2.60   5 2.60
                             8 2.60
   4  0.500  0.500  0.379-   8 2.60   2 2.60   1 2.60   2 2.60   1 2.60   3 2.60   3 2.60   7 2.60
                             6 2.60
   5  0.167  0.167  0.460-  10 2.56  12 2.57   9 2.57   1 2.60   7 2.60   7 2.60   8 2.60   8 2.60
                             6 2.60   6 2.60   3 2.60   2 2.60
   6  0.667  0.167  0.460-  10 2.56   9 2.57  11 2.57   2 2.60   8 2.60   7 2.60   8 2.60   7 2.60
                             5 2.60   5 2.60   4 2.60   1 2.60
   7  0.167  0.667  0.460-  10 2.56  12 2.57  11 2.57   3 2.60   5 2.60   5 2.60   6 2.60   6 2.60
                             8 2.60   8 2.60   4 2.60   1 2.60
   8  0.667  0.667  0.460-   9 2.59  12 2.59  11 2.59   4 2.60   6 2.60   5 2.60   6 2.60   5 2.60
                             7 2.60   7 2.60   2 2.60   3 2.60
   9  0.835  0.330  0.539-  16 2.54  15 2.54   5 2.57   6 2.57  12 2.57  11 2.57   8 2.59  10 2.60
                            10 2.60  11 2.63  12 2.63  13 2.65
  10  0.333  0.333  0.538-  16 2.55  15 2.55  14 2.55   5 2.56   6 2.56   7 2.56  12 2.60   9 2.60
                            11 2.60  11 2.60   9 2.60  12 2.60
  11  0.835  0.835  0.539-  14 2.54  15 2.54   6 2.57   7 2.57   9 2.57  12 2.57   8 2.59  10 2.60
                            10 2.60  12 2.63   9 2.63  13 2.65
  12  0.330  0.835  0.539-  16 2.54  14 2.54   5 2.57   7 2.57   9 2.57  11 2.57   8 2.59  10 2.60
                            10 2.60  11 2.63   9 2.63  13 2.65
  13  0.000  0.000  0.622-  17 1.87  14 2.60  15 2.60  15 2.60  14 2.60  16 2.60  16 2.60  11 2.65
                            12 2.65   9 2.65
  14  0.499  0.001  0.617-  11 2.54  12 2.54  10 2.55  15 2.59  16 2.59  13 2.60  13 2.60  16 2.61
                            15 2.61
  15  0.001  0.499  0.617-  11 2.54   9 2.54  10 2.55  14 2.59  16 2.59  13 2.60  13 2.60  16 2.61
                            14 2.61
  16  0.499  0.499  0.617-   9 2.54  12 2.54  10 2.55  14 2.59  15 2.59  13 2.60  13 2.60  15 2.61
                            14 2.61
  17  1.000  1.000  0.693-  18 1.16  13 1.87
  18  1.000  1.000  0.737-  17 1.16
 

IMPORTANT INFORMATION: All symmetrisations will be switched off!
NOSYMM: (Re-)initialisation of all symmetry stuff for point group C_1.

 
 
 KPOINTS: KPOINTS created by Atomic Simulation Env

Automatic generation of k-mesh.
Space group operators:
 irot       det(A)        alpha          n_x          n_y          n_z        tau_x        tau_y        tau_z
    1     1.000000     0.000000     1.000000     0.000000     0.000000     0.000000     0.000000     0.000000
 
 Subroutine IBZKPT returns following result:
 ===========================================
 
 Found     13 irreducible k-points:
 
 Following reciprocal coordinates:
            Coordinates               Weight
  0.000000  0.000000  0.000000      1.000000
  0.200000 -0.000000  0.000000      2.000000
  0.400000 -0.000000  0.000000      2.000000
  0.000000  0.200000  0.000000      2.000000
  0.200000  0.200000  0.000000      2.000000
  0.400000  0.200000  0.000000      2.000000
 -0.400000  0.200000  0.000000      2.000000
 -0.200000  0.200000  0.000000      2.000000
  0.000000  0.400000  0.000000      2.000000
  0.200000  0.400000  0.000000      2.000000
  0.400000  0.400000  0.000000      2.000000
 -0.400000  0.400000  0.000000      2.000000
 -0.200000  0.400000  0.000000      2.000000
 
 Following cartesian coordinates:
            Coordinates               Weight
  0.000000  0.000000  0.000000      1.000000
  0.038462 -0.022206  0.000000      2.000000
  0.076924 -0.044412  0.000000      2.000000
  0.000000  0.044412  0.000000      2.000000
  0.038462  0.022206  0.000000      2.000000
  0.076924  0.000000  0.000000      2.000000
 -0.076924  0.088824  0.000000      2.000000
 -0.038462  0.066618  0.000000      2.000000
  0.000000  0.088824  0.000000      2.000000
  0.038462  0.066618  0.000000      2.000000
  0.076924  0.044412  0.000000      2.000000
 -0.076924  0.133236  0.000000      2.000000
 -0.038462  0.111030  0.000000      2.000000
 


--------------------------------------------------------------------------------------------------------




 Dimension of arrays:
   k-points           NKPTS =     13   k-points in BZ     NKDIM =     13   number of bands    NBANDS=    112
   number of dos      NEDOS =    301   number of ions     NIONS =     18
   non local maximal  LDIM  =      6   non local SUM 2l+1 LMDIM =     18
   total plane-waves  NPLWV =  72576
   max r-space proj   IRMAX =   2306   max aug-charges    IRDMAX=   3604
   dimension x,y,z NGX =    24 NGY =   24 NGZ =  126
   dimension x,y,z NGXF=    48 NGYF=   48 NGZF=  252
   support grid    NGXF=    48 NGYF=   48 NGZF=  252
   ions per type =              16   1   1
   NGX,Y,Z   is equivalent  to a cutoff of   7.67,  7.67,  7.94 a.u.
   NGXF,Y,Z  is equivalent  to a cutoff of  15.35, 15.35, 15.89 a.u.

 SYSTEM =  unknown system                          
 POSCAR =  Cu  C  O                                

 Startparameter for this run:
   NWRITE =      2    write-flag & timer
   PREC   = normal    normal or accurate (medium, high low for compatibility)
   ISTART =      0    job   : 0-new  1-cont  2-samecut
   ICHARG =      2    charge: 1-file 2-atom 10-const
   ISPIN  =      1    spin polarized calculation?
   LNONCOLLINEAR =      F non collinear calculations
   LSORBIT =      F    spin-orbit coupling
   INIWAV =      1    electr: 0-lowe 1-rand  2-diag
   LASPH  =      F    aspherical Exc in radial PAW
   METAGGA=      F    non-selfconsistent MetaGGA calc.

 Electronic Relaxation 1
   ENCUT  =  350.0 eV  25.72 Ry    5.07 a.u.   7.93  7.93 40.22*2*pi/ulx,y,z
   ENINI  =  350.0     initial cutoff
   ENAUG  =  644.9 eV  augmentation charge cutoff
   NELM   =     60;   NELMIN=  2; NELMDL= -5     # of ELM steps 
   EDIFF  = 0.1E-03   stopping-criterion for ELM
   LREAL  =      T    real-space projection
   NLSPLINE    = F    spline interpolate recip. space projectors
   LCOMPAT=      F    compatible to vasp.4.4
   GGA_COMPAT  = T    GGA compatible to vasp.4.4-vasp.4.6
   LMAXPAW     = -100 max onsite density
   LMAXMIX     =    2 max onsite mixed and CHGCAR
   VOSKOWN=      0    Vosko Wilk Nusair interpolation
   ROPT   =   -0.00050  -0.00050  -0.00050
 Ionic relaxation
   EDIFFG = -.3E-01   stopping-criterion for IOM
   NSW    =      0    number of steps for IOM
   NBLOCK =      1;   KBLOCK =      1    inner block; outer block 
   IBRION =     -1    ionic relax: 0-MD 1-quasi-New 2-CG
   NFREE  =      1    steps in history (QN), initial steepest desc. (CG)
   ISIF   =      0    stress and relaxation
   IWAVPR =     10    prediction:  0-non 1-charg 2-wave 3-comb
   ISYM   =      0    0-nonsym 1-usesym 2-fastsym
   LCORR  =      T    Harris-Foulkes like correction to forces

   POTIM  = 0.5000    time-step for ionic-motion
   TEIN   =    0.0    initial temperature
   TEBEG  =    0.0;   TEEND  =   0.0 temperature during run
   SMASS  =  -3.00    Nose mass-parameter (am)
   estimated Nose-frequenzy (Omega)   =  0.10E-29 period in steps =****** mass=  -0.618E-27a.u.
   SCALEE = 1.0000    scale energy and forces
   NPACO  =    256;   APACO  = 16.0  distance and # of slots for P.C.
   PSTRESS=    0.0 pullay stress

  Mass of Ions in am
   POMASS =  63.55 12.01 16.00
  Ionic Valenz
   ZVAL   =  11.00  4.00  6.00
  Atomic Wigner-Seitz radii
   RWIGS  =   1.50  0.80  0.80
  virtual crystal weights 
   VCA    =   1.00  1.00  1.00
   NELECT =     186.0000    total number of electrons
   NUPDOWN=      -1.0000    fix difference up-down

 DOS related values:
   EMIN   =  10.00;   EMAX   =-10.00  energy-range for DOS
   EFERMI =   0.00
   ISMEAR =     1;   SIGMA  =   0.20  broadening in eV -4-tet -1-fermi 0-gaus

 Electronic relaxation 2 (details)
   IALGO  =     38    algorithm
   LDIAG  =      T    sub-space diagonalisation (order eigenvalues)
   LSUBROT=      F    optimize rotation matrix (better conditioning)
   TURBO    =      0    0=normal 1=particle mesh
   IRESTART =      0    0=no restart 2=restart with 2 vectors
   NREBOOT  =      0    no. of reboots
   NMIN     =      0    reboot dimension
   EREF     =   0.00    reference energy to select bands
   IMIX   =      4    mixing-type and parameters
     AMIX     =   0.40;   BMIX     =  1.00
     AMIX_MAG =   1.60;   BMIX_MAG =  1.00
     AMIN     =   0.10
     WC   =   100.;   INIMIX=   1;  MIXPRE=   1;  MAXMIX= -45

 Intra band minimization:
   WEIMIN = 0.0000     energy-eigenvalue tresh-hold
   EBREAK =  0.22E-06  absolut break condition
   DEPER  =   0.30     relativ break condition  

   TIME   =   0.40     timestep for ELM

  volume/ion in A,a.u.               =      34.30       231.50
  Fermi-wavevector in a.u.,A,eV,Ry     =   1.097420  2.073823 16.385914  1.204331
  Thomas-Fermi vector in A             =   2.233780
 
 Write flags
   LWAVE        =      F    write WAVECAR
   LDOWNSAMPLE  =      F    k-point downsampling of WAVECAR
   LCHARG       =      F    write CHGCAR
   LVTOT        =      F    write LOCPOT, total local potential
   LVHAR        =      F    write LOCPOT, Hartree potential only
   LELF         =      F    write electronic localiz. function (ELF)
   LORBIT       =      0    0 simple, 1 ext, 2 COOP (PROOUT), +10 PAW based schemes


 Dipole corrections
   LMONO  =      F    monopole corrections only (constant potential shift)
   LDIPOL =      F    correct potential (dipole corrections)
   IDIPOL =      0    1-x, 2-y, 3-z, 4-all directions 
   EPSILON=  1.0000000 bulk dielectric constant

 Exchange correlation treatment:
   GGA     =    RP    GGA type
   LEXCH   =     9    internal setting for exchange type
   VOSKOWN=      0    Vosko Wilk Nusair interpolation
   LHFCALC =     F    Hartree Fock is set to
   LHFONE  =     F    Hartree Fock one center treatment
   AEXX    =    0.0000 exact exchange contribution

 Linear response parameters
   LEPSILON=     F    determine dielectric tensor
   LRPA    =     F    only Hartree local field effects (RPA)
   LNABLA  =     F    use nabla operator in PAW spheres
   LVEL    =     F    velocity operator in full k-point grid
   LINTERFAST=   F  fast interpolation
   KINTER  =     0    interpolate to denser k-point grid
   CSHIFT  =0.1000    complex shift for real part using Kramers Kronig
   OMEGAMAX=  -1.0    maximum frequency
   DEG_THRESHOLD= 0.2000000E-02 threshold for treating states as degnerate
   RTIME   =   -0.100 relaxation time in fs
  (WPLASMAI=    0.000 imaginary part of plasma frequency in eV, 0.658/RTIME)
   DFIELD  = 0.0000000 0.0000000 0.0000000 field for delta impulse in time
 
 Orbital magnetization related:
   ORBITALMAG=     F  switch on orbital magnetization
   LCHIMAG   =     F  perturbation theory with respect to B field
   DQ        =  0.001000  dq finite difference perturbation B field
   LLRAUG    =     F  two centre corrections for induced B field



--------------------------------------------------------------------------------------------------------


 Static calculation
 charge density and potential will be updated during run
 non-spin polarized calculation
 Variant of blocked Davidson
 Davidson routine will perform the subspace rotation
 perform sub-space diagonalisation
    after iterative eigenvector-optimisation
 modified Broyden-mixing scheme, WC =      100.0
 initial mixing is a Kerker type mixing with AMIX =  0.4000 and BMIX =      1.0000
 Hartree-type preconditioning will be used
 using additional bands           19
 real space projection scheme for non local part
 use partial core corrections
 calculate Harris-corrections to forces 
   (improved forces if not selfconsistent)
 use gradient corrections 
 use of overlap-Matrix (Vanderbilt PP)
 Methfessel and Paxton  Order N= 1 SIGMA  =   0.20


--------------------------------------------------------------------------------------------------------


  energy-cutoff  :      350.00
  volume of cell :      617.47
      direct lattice vectors                 reciprocal lattice vectors
     5.199963631  0.000000000  0.000000000     0.192309037 -0.111029674  0.000000000
     2.599981815  4.503300603  0.000000000     0.000000000  0.222059349  0.000000000
     0.000000000  0.000000000 26.368628788     0.000000000  0.000000000  0.037923853

  length of vectors
     5.199963631  5.199963631 26.368628788     0.222059349  0.222059349  0.037923853


 
 k-points in units of 2pi/SCALE and weight: KPOINTS created by Atomic Simulation Env
   0.00000000  0.00000000  0.00000000       0.040
   0.03846181 -0.02220593  0.00000000       0.080
   0.07692361 -0.04441187  0.00000000       0.080
   0.00000000  0.04441187  0.00000000       0.080
   0.03846181  0.02220593  0.00000000       0.080
   0.07692361  0.00000000  0.00000000       0.080
  -0.07692361  0.08882374  0.00000000       0.080
  -0.03846181  0.06661780  0.00000000       0.080
   0.00000000  0.08882374  0.00000000       0.080
   0.03846181  0.06661780  0.00000000       0.080
   0.07692361  0.04441187  0.00000000       0.080
  -0.07692361  0.13323561  0.00000000       0.080
  -0.03846181  0.11102967  0.00000000       0.080
 
 k-points in reciprocal lattice and weights: KPOINTS created by Atomic Simulation Env
   0.00000000  0.00000000  0.00000000       0.040
   0.20000000 -0.00000000  0.00000000       0.080
   0.40000000 -0.00000000  0.00000000       0.080
   0.00000000  0.20000000  0.00000000       0.080
   0.20000000  0.20000000  0.00000000       0.080
   0.40000000  0.20000000  0.00000000       0.080
  -0.40000000  0.20000000  0.00000000       0.080
  -0.20000000  0.20000000  0.00000000       0.080
   0.00000000  0.40000000  0.00000000       0.080
   0.20000000  0.40000000  0.00000000       0.080
   0.40000000  0.40000000  0.00000000       0.080
  -0.40000000  0.40000000  0.00000000       0.080
  -0.20000000  0.40000000  0.00000000       0.080
 
 position of ions in fractional coordinates (direct lattice) 
   0.00000000  0.00000000  0.37923853
   0.50000000  0.00000000  0.37923853
   0.00000000  0.50000000  0.37923853
   0.50000000  0.50000000  0.37923853
   0.16666667  0.16666667  0.45974618
   0.66666667  0.16666667  0.45974618
   0.16666667  0.66666667  0.45974618
   0.66666667  0.66666667  0.45974618
   0.83496983  0.33008483  0.53917858
   0.33333188  0.33333188  0.53833927
   0.83494671  0.83494672  0.53918209
   0.33008483  0.83496984  0.53917858
   0.00000205  0.00000203  0.62248606
   0.49946045  0.00107830  0.61657511
   0.00107832  0.49946044  0.61657511
   0.49946046  0.49946044  0.61656268
   0.99999973  0.99999974  0.69331145
   0.99999854  0.99999856  0.73738988
 
 position of ions in cartesian coordinates  (Angst):
   0.00000000  0.00000000 10.00000000
   2.59998182  0.00000000 10.00000000
   1.29999091  2.25165030 10.00000000
   3.89997272  2.25165030 10.00000000
   1.29999091  0.75055010 12.12287626
   3.89997272  0.75055010 12.12287626
   2.59998182  3.00220040 12.12287626
   5.19996363  3.00220040 12.12287626
   5.20002732  1.48647122 14.21739973
   2.59997049  1.50109364 14.19526834
   6.51253884  3.76001608 14.21749234
   3.88733551  3.76012017 14.21739974
   0.00001595  0.00000916 16.41410385
   2.59997977  0.00485593 16.25824014
   1.30419530  2.24922048 16.25824014
   3.89576427  2.24922049 16.25791244
   7.79994335  4.50329942 18.28167238
   7.79993410  4.50329414 19.44395993
 


--------------------------------------------------------------------------------------------------------


 k-point  1 :   0.0000 0.0000 0.0000  plane waves:    9087
 k-point  2 :   0.2000-0.0000 0.0000  plane waves:    9166
 k-point  3 :   0.4000-0.0000 0.0000  plane waves:    9194
 k-point  4 :   0.0000 0.2000 0.0000  plane waves:    9166
 k-point  5 :   0.2000 0.2000 0.0000  plane waves:    9166
 k-point  6 :   0.4000 0.2000 0.0000  plane waves:    9184
 k-point  7 :  -0.4000 0.2000 0.0000  plane waves:    9208
 k-point  8 :  -0.2000 0.2000 0.0000  plane waves:    9184
 k-point  9 :   0.0000 0.4000 0.0000  plane waves:    9194
 k-point 10 :   0.2000 0.4000 0.0000  plane waves:    9184
 k-point 11 :   0.4000 0.4000 0.0000  plane waves:    9194
 k-point 12 :  -0.4000 0.4000 0.0000  plane waves:    9208
 k-point 13 :  -0.2000 0.4000 0.0000  plane waves:    9208

 maximum and minimum number of plane-waves per node :      2315     2241

 maximum number of plane-waves:      9208
 maximum index in each direction: 
   IXMAX=    8   IYMAX=    7   IZMAX=   40
   IXMIN=   -8   IYMIN=   -8   IZMIN=  -40


 real space projection operators:
  total allocation   :       5101.31 KBytes
  max/ min on nodes  :       1302.62       1263.31


 parallel 3D FFT for wavefunctions:
    minimum data exchange during FFTs selected (reduces bandwidth)
 parallel 3D FFT for charge:
    minimum data exchange during FFTs selected (reduces bandwidth)


 total amount of memory used by VASP MPI-rank0    51084. kBytes
=======================================================================

   base      :      30000. kBytes
   nonlr-proj:       2250. kBytes
   fftplans  :       1786. kBytes
   grid      :       3064. kBytes
   one-center:         77. kBytes
   wavefun   :      13907. kBytes
 
     INWAV:  cpu time    0.0000: real time    0.0002
 Broyden mixing: mesh for mixing (old mesh)
   NGX = 15   NGY = 15   NGZ = 81
  (NGX  = 48   NGY  = 48   NGZ  =252)
  gives a total of  18225 points

 initial charge density was supplied:
 charge density of overlapping atoms calculated
 number of electron     186.0000000 magnetization 
 keeping initial charge density in first step


--------------------------------------------------------------------------------------------------------


 Maximum index for non-local projection operator          556
 Maximum index for augmentation-charges          248 (set IRDMAX)


--------------------------------------------------------------------------------------------------------


 First call to EWALD:  gamma=   0.208
 Maximum number of real-space cells 5x 5x 1
 Maximum number of reciprocal cells 2x 2x 7

    FEWALD:  cpu time    0.0020: real time    0.0020


--------------------------------------- Iteration      1(   1)  ---------------------------------------


    POTLOK:  cpu time    0.0246: real time    0.0601
    SETDIJ:  cpu time    0.0052: real time    0.0625
     EDDAV:  cpu time    2.9053: real time    3.0817
       DOS:  cpu time    0.0023: real time    0.0050
    --------------------------------------------
      LOOP:  cpu time    2.9375: real time    3.2094

 eigenvalue-minimisations  :  2912
 total energy-change (2. order) : 0.1622216E+04  (-0.6287303E+04)
 number of electron     186.0000000 magnetization 
 augmentation part      186.0000000 magnetization 

 Free energy of the ion-electron system (eV)
  ---------------------------------------------------
  alpha Z        PSCENC =       333.59272159
  Ewald energy   TEWEN  =    109475.29818643
  -Hartree energ DENC   =   -131238.17202587
  -exchange      EXHF   =         0.00000000
  -V(xc)+E(xc)   XCENC  =       757.82751579
  PAW double counting   =     20119.38880325   -21798.78739505
  entropy T*S    EENTRO =        -0.01422421
  eigenvalues    EBANDS =      1155.40266433
  atomic energy  EATOM  =     22817.67997243
  Solvation  Ediel_sol  =         0.00000000
  ---------------------------------------------------
  free energy    TOTEN  =      1622.21621869 eV

  energy without entropy =     1622.23044289  energy(sigma->0) =     1622.22096009


--------------------------------------------------------------------------------------------------------




--------------------------------------- Iteration      1(   2)  ---------------------------------------


     EDDAV:  cpu time    3.1583: real time    3.1612
       DOS:  cpu time    0.0020: real time    0.0020
    --------------------------------------------
      LOOP:  cpu time    3.1603: real time    3.1631

 eigenvalue-minimisations  :  2912
 total energy-change (2. order) :-0.1465630E+04  (-0.1415565E+04)
 number of electron     186.0000000 magnetization 
 augmentation part      186.0000000 magnetization 

 Free energy of the ion-electron system (eV)
  ---------------------------------------------------
  alpha Z        PSCENC =       333.59272159
  Ewald energy   TEWEN  =    109475.29818643
  -Hartree energ DENC   =   -131238.17202587
  -exchange      EXHF   =         0.00000000
  -V(xc)+E(xc)   XCENC  =       757.82751579
  PAW double counting   =     20119.38880325   -21798.78739505
  entropy T*S    EENTRO =         0.00491305
  eigenvalues    EBANDS =      -310.24686053
  atomic energy  EATOM  =     22817.67997243
  Solvation  Ediel_sol  =         0.00000000
  ---------------------------------------------------
  free energy    TOTEN  =       156.58583108 eV

  energy without entropy =      156.58091803  energy(sigma->0) =      156.58419340


--------------------------------------------------------------------------------------------------------




--------------------------------------- Iteration      1(   3)  ---------------------------------------


     EDDAV:  cpu time    3.4275: real time    3.4286
       DOS:  cpu time    0.0017: real time    0.0017
    --------------------------------------------
      LOOP:  cpu time    3.4292: real time    3.4303

 eigenvalue-minimisations  :  4040
 total energy-change (2. order) :-0.2065910E+03  (-0.1919215E+03)
 number of electron     186.0000000 magnetization 
 augmentation part      186.0000000 magnetization 

 Free energy of the ion-electron system (eV)
  ---------------------------------------------------
  alpha Z        PSCENC =       333.59272159
  Ewald energy   TEWEN  =    109475.29818643
  -Hartree energ DENC   =   -131238.17202587
  -exchange      EXHF   =         0.00000000
  -V(xc)+E(xc)   XCENC  =       757.82751579
  PAW double counting   =     20119.38880325   -21798.78739505
  entropy T*S    EENTRO =        -0.00412228
  eigenvalues    EBANDS =      -516.82881203
  atomic energy  EATOM  =     22817.67997243
  Solvation  Ediel_sol  =         0.00000000
  ---------------------------------------------------
  free energy    TOTEN  =       -50.00515575 eV

  energy without entropy =      -50.00103347  energy(sigma->0) =      -50.00378166


--------------------------------------------------------------------------------------------------------




--------------------------------------- Iteration      1(   4)  ---------------------------------------


     EDDAV:  cpu time    3.6259: real time    3.6289
       DOS:  cpu time    0.0023: real time    0.0023
    --------------------------------------------
      LOOP:  cpu time    3.6282: real time    3.6312

 eigenvalue-minimisations  :  4264
 total energy-change (2. order) :-0.2550682E+02  (-0.2439234E+02)
 number of electron     186.0000000 magnetization 
 augmentation part      186.0000000 magnetization 

 Free energy of the ion-electron system (eV)
  ---------------------------------------------------
  alpha Z        PSCENC =       333.59272159
  Ewald energy   TEWEN  =    109475.29818643
  -Hartree energ DENC   =   -131238.17202587
  -exchange      EXHF   =         0.00000000
  -V(xc)+E(xc)   XCENC  =       757.82751579
  PAW double counting   =     20119.38880325   -21798.78739505
  entropy T*S    EENTRO =        -0.02495658
  eigenvalues    EBANDS =      -542.31479744
  atomic energy  EATOM  =     22817.67997243
  Solvation  Ediel_sol  =         0.00000000
  ---------------------------------------------------
  free energy    TOTEN  =       -75.51197546 eV

  energy without entropy =      -75.48701888  energy(sigma->0) =      -75.50365660


--------------------------------------------------------------------------------------------------------




--------------------------------------- Iteration      1(   5)  ---------------------------------------


     EDDAV:  cpu time    3.9011: real time    3.9025
       DOS:  cpu time    0.0019: real time    0.0019
    CHARGE:  cpu time    0.1657: real time    0.1657
    MIXING:  cpu time    0.0011: real time    0.0030
    --------------------------------------------
      LOOP:  cpu time    4.0698: real time    4.0731

 eigenvalue-minimisations  :  4192
 total energy-change (2. order) :-0.1199754E+01  (-0.1143672E+01)
 number of electron     186.0000780 magnetization 
 augmentation part      105.1620099 magnetization 

 Broyden mixing:
  rms(total) = 0.30600E+01    rms(broyden)= 0.30591E+01
  rms(prec ) = 0.32004E+01
  weight for this iteration     100.00

 Free energy of the ion-electron system (eV)
  ---------------------------------------------------
  alpha Z        PSCENC =       333.59272159
  Ewald energy   TEWEN  =    109475.29818643
  -Hartree energ DENC   =   -131238.17202587
  -exchange      EXHF   =         0.00000000
  -V(xc)+E(xc)   XCENC  =       757.82751579
  PAW double counting   =     20119.38880325   -21798.78739505
  entropy T*S    EENTRO =        -0.03277982
  eigenvalues    EBANDS =      -543.50672846
  atomic energy  EATOM  =     22817.67997243
  Solvation  Ediel_sol  =         0.00000000
  ---------------------------------------------------
  free energy    TOTEN  =       -76.71172972 eV

  energy without entropy =      -76.67894990  energy(sigma->0) =      -76.70080311


--------------------------------------------------------------------------------------------------------




--------------------------------------- Iteration      1(   6)  ---------------------------------------


    POTLOK:  cpu time    0.0206: real time    0.0207
    SETDIJ:  cpu time    0.0043: real time    0.0043
     EDDAV:  cpu time    3.5543: real time    3.5566
       DOS:  cpu time    0.0020: real time    0.0020
    CHARGE:  cpu time    0.1486: real time    0.1486
    MIXING:  cpu time    0.0011: real time    0.0011
    --------------------------------------------
      LOOP:  cpu time    3.7309: real time    3.7333

 eigenvalue-minimisations  :  3528
 total energy-change (2. order) : 0.5002103E+01  (-0.1549337E+02)
 number of electron     186.0000920 magnetization 
 augmentation part      117.5122665 magnetization 

 Broyden mixing:
  rms(total) = 0.18772E+01    rms(broyden)= 0.18757E+01
  rms(prec ) = 0.19770E+01
  weight for this iteration     100.00

 eigenvalues of (default mixing * dielectric matrix)
  average eigenvalue GAMMA=   0.6297
  0.6297

 Free energy of the ion-electron system (eV)
  ---------------------------------------------------
  alpha Z        PSCENC =       333.59272159
  Ewald energy   TEWEN  =    109475.29818643
  -Hartree energ DENC   =   -130744.35378593
  -exchange      EXHF   =         0.00000000
  -V(xc)+E(xc)   XCENC  =       738.42529169
  PAW double counting   =     20353.06467814   -21945.78152045
  entropy T*S    EENTRO =        -0.03930893
  eigenvalues    EBANDS =     -1099.59586185
  atomic energy  EATOM  =     22817.67997243
  Solvation  Ediel_sol  =         0.00000000
  ---------------------------------------------------
  free energy    TOTEN  =       -71.70962688 eV

  energy without entropy =      -71.67031795  energy(sigma->0) =      -71.69652391


--------------------------------------------------------------------------------------------------------




--------------------------------------- Iteration      1(   7)  ---------------------------------------


    POTLOK:  cpu time    0.0211: real time    0.0213
    SETDIJ:  cpu time    0.0032: real time    0.0032
     EDDAV:  cpu time    2.9350: real time    2.9360
       DOS:  cpu time    0.0019: real time    0.0022
    CHARGE:  cpu time    0.1766: real time    0.1766
    MIXING:  cpu time    0.0013: real time    0.0013
    --------------------------------------------
      LOOP:  cpu time    3.1391: real time    3.1405

 eigenvalue-minimisations  :  3376
 total energy-change (2. order) : 0.7610983E+01  (-0.4846669E+01)
 number of electron     186.0000879 magnetization 
 augmentation part      114.3307087 magnetization 

 Broyden mixing:
  rms(total) = 0.61662E+00    rms(broyden)= 0.61628E+00
  rms(prec ) = 0.68767E+00
  weight for this iteration     100.00

 eigenvalues of (default mixing * dielectric matrix)
  average eigenvalue GAMMA=   0.6075
  0.6075  0.6075

 Free energy of the ion-electron system (eV)
  ---------------------------------------------------
  alpha Z        PSCENC =       333.59272159
  Ewald energy   TEWEN  =    109475.29818643
  -Hartree energ DENC   =   -130951.01859399
  -exchange      EXHF   =         0.00000000
  -V(xc)+E(xc)   XCENC  =       744.18982929
  PAW double counting   =     20773.68004521   -22434.59077385
  entropy T*S    EENTRO =        -0.00635161
  eigenvalues    EBANDS =      -822.92367978
  atomic energy  EATOM  =     22817.67997243
  Solvation  Ediel_sol  =         0.00000000
  ---------------------------------------------------
  free energy    TOTEN  =       -64.09864428 eV

  energy without entropy =      -64.09229267  energy(sigma->0) =      -64.09652707


--------------------------------------------------------------------------------------------------------




--------------------------------------- Iteration      1(   8)  ---------------------------------------


    POTLOK:  cpu time    0.0232: real time    0.0233
    SETDIJ:  cpu time    0.0045: real time    0.0045
     EDDAV:  cpu time    3.8983: real time    3.8995
       DOS:  cpu time    0.0021: real time    0.0021
    CHARGE:  cpu time    0.1862: real time    0.1862
    MIXING:  cpu time    0.0017: real time    0.0017
    --------------------------------------------
      LOOP:  cpu time    4.1160: real time    4.1173

 eigenvalue-minimisations  :  4272
 total energy-change (2. order) : 0.1016481E+00  (-0.1186430E+01)
 number of electron     186.0000873 magnetization 
 augmentation part      113.6639929 magnetization 

 Broyden mixing:
  rms(total) = 0.39091E+00    rms(broyden)= 0.39069E+00
  rms(prec ) = 0.56001E+00
  weight for this iteration     100.00

 eigenvalues of (default mixing * dielectric matrix)
  average eigenvalue GAMMA=   0.6760
  0.9274  0.7031  0.3974

 Free energy of the ion-electron system (eV)
  ---------------------------------------------------
  alpha Z        PSCENC =       333.59272159
  Ewald energy   TEWEN  =    109475.29818643
  -Hartree energ DENC   =   -130987.21387716
  -exchange      EXHF   =         0.00000000
  -V(xc)+E(xc)   XCENC  =       744.95476096
  PAW double counting   =     20970.95798444   -22650.10081987
  entropy T*S    EENTRO =         0.02028027
  eigenvalues    EBANDS =      -769.18620523
  atomic energy  EATOM  =     22817.67997243
  Solvation  Ediel_sol  =         0.00000000
  ---------------------------------------------------
  free energy    TOTEN  =       -63.99699613 eV

  energy without entropy =      -64.01727641  energy(sigma->0) =      -64.00375622


--------------------------------------------------------------------------------------------------------




--------------------------------------- Iteration      1(   9)  ---------------------------------------


    POTLOK:  cpu time    0.0259: real time    0.0261
    SETDIJ:  cpu time    0.0050: real time    0.0050
     EDDAV:  cpu time    3.9198: real time    3.9204
       DOS:  cpu time    0.0021: real time    0.0028
    CHARGE:  cpu time    0.1903: real time    0.1903
    MIXING:  cpu time    0.0012: real time    0.0012
    --------------------------------------------
      LOOP:  cpu time    4.1443: real time    4.1458

 eigenvalue-minimisations  :  3896
 total energy-change (2. order) : 0.6221985E-01  (-0.8914318E+00)
 number of electron     186.0000867 magnetization 
 augmentation part      113.1244093 magnetization 

 Broyden mixing:
  rms(total) = 0.35879E+00    rms(broyden)= 0.35860E+00
  rms(prec ) = 0.48791E+00
  weight for this iteration     100.00

 eigenvalues of (default mixing * dielectric matrix)
  average eigenvalue GAMMA=   0.8042
  1.8483  0.5776  0.5776  0.2135

 Free energy of the ion-electron system (eV)
  ---------------------------------------------------
  alpha Z        PSCENC =       333.59272159
  Ewald energy   TEWEN  =    109475.29818643
  -Hartree energ DENC   =   -131006.23654694
  -exchange      EXHF   =         0.00000000
  -V(xc)+E(xc)   XCENC  =       745.23353700
  PAW double counting   =     21156.95708341   -22850.27832252
  entropy T*S    EENTRO =         0.01122608
  eigenvalues    EBANDS =      -736.19263376
  atomic energy  EATOM  =     22817.67997243
  Solvation  Ediel_sol  =         0.00000000
  ---------------------------------------------------
  free energy    TOTEN  =       -63.93477628 eV

  energy without entropy =      -63.94600235  energy(sigma->0) =      -63.93851830


--------------------------------------------------------------------------------------------------------




--------------------------------------- Iteration      1(  10)  ---------------------------------------


    POTLOK:  cpu time    0.0237: real time    0.0238
    SETDIJ:  cpu time    0.0044: real time    0.0044
     EDDAV:  cpu time    3.7335: real time    3.7346
       DOS:  cpu time    0.0022: real time    0.0022
    CHARGE:  cpu time    0.1848: real time    0.1848
    MIXING:  cpu time    0.0013: real time    0.0013
    --------------------------------------------
      LOOP:  cpu time    3.9500: real time    3.9512

 eigenvalue-minimisations  :  3936
 total energy-change (2. order) : 0.8684971E-01  (-0.3415620E+00)
 number of electron     186.0000863 magnetization 
 augmentation part      112.6073485 magnetization 

 Broyden mixing:
  rms(total) = 0.29238E+00    rms(broyden)= 0.29231E+00
  rms(prec ) = 0.30670E+00
  weight for this iteration     100.00

 eigenvalues of (default mixing * dielectric matrix)
  average eigenvalue GAMMA=   0.8655
  2.2285  0.7215  0.7215  0.4458  0.2101

 Free energy of the ion-electron system (eV)
  ---------------------------------------------------
  alpha Z        PSCENC =       333.59272159
  Ewald energy   TEWEN  =    109475.29818643
  -Hartree energ DENC   =   -131025.55743387
  -exchange      EXHF   =         0.00000000
  -V(xc)+E(xc)   XCENC  =       745.06533726
  PAW double counting   =     21468.88406795   -23181.80951669
  entropy T*S    EENTRO =         0.01813601
  eigenvalues    EBANDS =      -697.01939766
  atomic energy  EATOM  =     22817.67997243
  Solvation  Ediel_sol  =         0.00000000
  ---------------------------------------------------
  free energy    TOTEN  =       -63.84792657 eV

  energy without entropy =      -63.86606258  energy(sigma->0) =      -63.85397190


--------------------------------------------------------------------------------------------------------




--------------------------------------- Iteration      1(  11)  ---------------------------------------


    POTLOK:  cpu time    0.0252: real time    0.0256
    SETDIJ:  cpu time    0.0056: real time    0.0056
     EDDAV:  cpu time    2.9662: real time    2.9673
       DOS:  cpu time    0.0019: real time    0.0019
    CHARGE:  cpu time    0.1724: real time    0.1726
    MIXING:  cpu time    0.0020: real time    0.0020
    --------------------------------------------
      LOOP:  cpu time    3.1734: real time    3.1750

 eigenvalue-minimisations  :  3512
 total energy-change (2. order) : 0.5740992E-01  (-0.9886690E-01)
 number of electron     186.0000867 magnetization 
 augmentation part      112.8677592 magnetization 

 Broyden mixing:
  rms(total) = 0.14455E+00    rms(broyden)= 0.14451E+00
  rms(prec ) = 0.16096E+00
  weight for this iteration     100.00

 eigenvalues of (default mixing * dielectric matrix)
  average eigenvalue GAMMA=   0.8224
  2.3590  0.7408  0.7408  0.5092  0.2220  0.3624

 Free energy of the ion-electron system (eV)
  ---------------------------------------------------
  alpha Z        PSCENC =       333.59272159
  Ewald energy   TEWEN  =    109475.29818643
  -Hartree energ DENC   =   -131011.98846694
  -exchange      EXHF   =         0.00000000
  -V(xc)+E(xc)   XCENC  =       744.28352707
  PAW double counting   =     21554.21561674   -23267.71785177
  entropy T*S    EENTRO =         0.02175186
  eigenvalues    EBANDS =      -709.17597405
  atomic energy  EATOM  =     22817.67997243
  Solvation  Ediel_sol  =         0.00000000
  ---------------------------------------------------
  free energy    TOTEN  =       -63.79051665 eV

  energy without entropy =      -63.81226851  energy(sigma->0) =      -63.79776727


--------------------------------------------------------------------------------------------------------




--------------------------------------- Iteration      1(  12)  ---------------------------------------


    POTLOK:  cpu time    0.0243: real time    0.0247
    SETDIJ:  cpu time    0.0047: real time    0.0047
     EDDAV:  cpu time    3.4322: real time    3.4333
       DOS:  cpu time    0.0020: real time    0.0020
    CHARGE:  cpu time    0.1654: real time    0.1654
    MIXING:  cpu time    0.0012: real time    0.0012
    --------------------------------------------
      LOOP:  cpu time    3.6297: real time    3.6312

 eigenvalue-minimisations  :  3344
 total energy-change (2. order) : 0.1110208E-01  (-0.3462864E-01)
 number of electron     186.0000868 magnetization 
 augmentation part      113.0385318 magnetization 

 Broyden mixing:
  rms(total) = 0.69904E-01    rms(broyden)= 0.69880E-01
  rms(prec ) = 0.75420E-01
  weight for this iteration     100.00

 eigenvalues of (default mixing * dielectric matrix)
  average eigenvalue GAMMA=   0.8258
  2.3656  0.8459  0.8459  0.6569  0.4935  0.2198  0.3531

 Free energy of the ion-electron system (eV)
  ---------------------------------------------------
  alpha Z        PSCENC =       333.59272159
  Ewald energy   TEWEN  =    109475.29818643
  -Hartree energ DENC   =   -131008.72027561
  -exchange      EXHF   =         0.00000000
  -V(xc)+E(xc)   XCENC  =       743.89780027
  PAW double counting   =     21590.19094417   -23303.27261847
  entropy T*S    EENTRO =         0.02288639
  eigenvalues    EBANDS =      -712.46903177
  atomic energy  EATOM  =     22817.67997243
  Solvation  Ediel_sol  =         0.00000000
  ---------------------------------------------------
  free energy    TOTEN  =       -63.77941456 eV

  energy without entropy =      -63.80230096  energy(sigma->0) =      -63.78704336


--------------------------------------------------------------------------------------------------------




--------------------------------------- Iteration      1(  13)  ---------------------------------------


    POTLOK:  cpu time    0.0207: real time    0.0215
    SETDIJ:  cpu time    0.0045: real time    0.0045
     EDDAV:  cpu time    3.3116: real time    3.3128
       DOS:  cpu time    0.0019: real time    0.0019
    CHARGE:  cpu time    0.1570: real time    0.1570
    MIXING:  cpu time    0.0014: real time    0.0014
    --------------------------------------------
      LOOP:  cpu time    3.4969: real time    3.4990

 eigenvalue-minimisations  :  3664
 total energy-change (2. order) : 0.6435807E-02  (-0.7063966E-02)
 number of electron     186.0000869 magnetization 
 augmentation part      113.1464456 magnetization 

 Broyden mixing:
  rms(total) = 0.34419E-01    rms(broyden)= 0.34405E-01
  rms(prec ) = 0.39489E-01
  weight for this iteration     100.00

 eigenvalues of (default mixing * dielectric matrix)
  average eigenvalue GAMMA=   0.8202
  2.3146  0.8077  0.8077  0.8122  0.8122  0.2184  0.4404  0.3486

 Free energy of the ion-electron system (eV)
  ---------------------------------------------------
  alpha Z        PSCENC =       333.59272159
  Ewald energy   TEWEN  =    109475.29818643
  -Hartree energ DENC   =   -131008.45858511
  -exchange      EXHF   =         0.00000000
  -V(xc)+E(xc)   XCENC  =       743.74936564
  PAW double counting   =     21594.34158602   -23306.35648300
  entropy T*S    EENTRO =         0.02256451
  eigenvalues    EBANDS =      -713.64230727
  atomic energy  EATOM  =     22817.67997243
  Solvation  Ediel_sol  =         0.00000000
  ---------------------------------------------------
  free energy    TOTEN  =       -63.77297876 eV

  energy without entropy =      -63.79554327  energy(sigma->0) =      -63.78050026


--------------------------------------------------------------------------------------------------------




--------------------------------------- Iteration      1(  14)  ---------------------------------------


    POTLOK:  cpu time    0.0206: real time    0.0208
    SETDIJ:  cpu time    0.0043: real time    0.0043
     EDDAV:  cpu time    3.1663: real time    3.1673
       DOS:  cpu time    0.0022: real time    0.0022
    CHARGE:  cpu time    0.1814: real time    0.1816
    MIXING:  cpu time    0.0016: real time    0.0016
    --------------------------------------------
      LOOP:  cpu time    3.3764: real time    3.3778

 eigenvalue-minimisations  :  3512
 total energy-change (2. order) : 0.4709861E-03  (-0.4055725E-02)
 number of electron     186.0000870 magnetization 
 augmentation part      113.2289829 magnetization 

 Broyden mixing:
  rms(total) = 0.22577E-01    rms(broyden)= 0.22553E-01
  rms(prec ) = 0.25702E-01
  weight for this iteration     100.00

 eigenvalues of (default mixing * dielectric matrix)
  average eigenvalue GAMMA=   0.9406
  2.2651  2.2651  0.7913  0.7913  0.6762  0.6762  0.2185  0.4265  0.3550

 Free energy of the ion-electron system (eV)
  ---------------------------------------------------
  alpha Z        PSCENC =       333.59272159
  Ewald energy   TEWEN  =    109475.29818643
  -Hartree energ DENC   =   -131010.28463550
  -exchange      EXHF   =         0.00000000
  -V(xc)+E(xc)   XCENC  =       743.74212783
  PAW double counting   =     21586.91902859   -23297.66116990
  entropy T*S    EENTRO =         0.02360385
  eigenvalues    EBANDS =      -713.08234309
  atomic energy  EATOM  =     22817.67997243
  Solvation  Ediel_sol  =         0.00000000
  ---------------------------------------------------
  free energy    TOTEN  =       -63.77250777 eV

  energy without entropy =      -63.79611162  energy(sigma->0) =      -63.78037572


--------------------------------------------------------------------------------------------------------




--------------------------------------- Iteration      1(  15)  ---------------------------------------


    POTLOK:  cpu time    0.0251: real time    0.0253
    SETDIJ:  cpu time    0.0049: real time    0.0049
     EDDAV:  cpu time    3.2889: real time    3.2902
       DOS:  cpu time    0.0021: real time    0.0021
    CHARGE:  cpu time    0.1640: real time    0.1641
    MIXING:  cpu time    0.0037: real time    0.0037
    --------------------------------------------
      LOOP:  cpu time    3.4888: real time    3.4904

 eigenvalue-minimisations  :  3600
 total energy-change (2. order) : 0.1299779E-02  (-0.1066772E-02)
 number of electron     186.0000870 magnetization 
 augmentation part      113.2307751 magnetization 

 Broyden mixing:
  rms(total) = 0.16074E-01    rms(broyden)= 0.16069E-01
  rms(prec ) = 0.17704E-01
  weight for this iteration     100.00

 eigenvalues of (default mixing * dielectric matrix)
  average eigenvalue GAMMA=   0.9133
  2.3262  2.3262  0.8162  0.8162  0.7130  0.7130  0.2185  0.4636  0.3573  0.3828

 Free energy of the ion-electron system (eV)
  ---------------------------------------------------
  alpha Z        PSCENC =       333.59272159
  Ewald energy   TEWEN  =    109475.29818643
  -Hartree energ DENC   =   -131016.64840439
  -exchange      EXHF   =         0.00000000
  -V(xc)+E(xc)   XCENC  =       743.77491791
  PAW double counting   =     21589.47418068   -23299.91383083
  entropy T*S    EENTRO =         0.02308634
  eigenvalues    EBANDS =      -707.05203815
  atomic energy  EATOM  =     22817.67997243
  Solvation  Ediel_sol  =         0.00000000
  ---------------------------------------------------
  free energy    TOTEN  =       -63.77120799 eV

  energy without entropy =      -63.79429433  energy(sigma->0) =      -63.77890344


--------------------------------------------------------------------------------------------------------




--------------------------------------- Iteration      1(  16)  ---------------------------------------


    POTLOK:  cpu time    0.0312: real time    0.0315
    SETDIJ:  cpu time    0.0037: real time    0.0037
     EDDAV:  cpu time    3.2892: real time    3.2908
       DOS:  cpu time    0.0020: real time    0.0020
    CHARGE:  cpu time    0.1617: real time    0.1617
    MIXING:  cpu time    0.0019: real time    0.0019
    --------------------------------------------
      LOOP:  cpu time    3.4897: real time    3.4916

 eigenvalue-minimisations  :  3576
 total energy-change (2. order) : 0.7531873E-03  (-0.4139314E-03)
 number of electron     186.0000870 magnetization 
 augmentation part      113.2101628 magnetization 

 Broyden mixing:
  rms(total) = 0.10055E-01    rms(broyden)= 0.10050E-01
  rms(prec ) = 0.10917E-01
  weight for this iteration     100.00

 eigenvalues of (default mixing * dielectric matrix)
  average eigenvalue GAMMA=   0.9128
  2.3131  2.3131  0.9512  0.8625  0.8625  0.6911  0.6911  0.2185  0.4277  0.3697
  0.3410

 Free energy of the ion-electron system (eV)
  ---------------------------------------------------
  alpha Z        PSCENC =       333.59272159
  Ewald energy   TEWEN  =    109475.29818643
  -Hartree energ DENC   =   -131020.10570794
  -exchange      EXHF   =         0.00000000
  -V(xc)+E(xc)   XCENC  =       743.83748428
  PAW double counting   =     21591.68088994   -23302.39353189
  entropy T*S    EENTRO =         0.02309003
  eigenvalues    EBANDS =      -703.38355968
  atomic energy  EATOM  =     22817.67997243
  Solvation  Ediel_sol  =         0.00000000
  ---------------------------------------------------
  free energy    TOTEN  =       -63.77045480 eV

  energy without entropy =      -63.79354483  energy(sigma->0) =      -63.77815148


--------------------------------------------------------------------------------------------------------




--------------------------------------- Iteration      1(  17)  ---------------------------------------


    POTLOK:  cpu time    0.0229: real time    0.0230
    SETDIJ:  cpu time    0.0045: real time    0.0045
     EDDAV:  cpu time    3.1155: real time    3.1168
       DOS:  cpu time    0.0023: real time    0.0027
    CHARGE:  cpu time    0.1787: real time    0.1787
    MIXING:  cpu time    0.0018: real time    0.0018
    --------------------------------------------
      LOOP:  cpu time    3.3256: real time    3.3274

 eigenvalue-minimisations  :  3432
 total energy-change (2. order) : 0.1604980E-03  (-0.1273220E-03)
 number of electron     186.0000870 magnetization 
 augmentation part      113.2087897 magnetization 

 Broyden mixing:
  rms(total) = 0.57777E-02    rms(broyden)= 0.57765E-02
  rms(prec ) = 0.66135E-02
  weight for this iteration     100.00

 eigenvalues of (default mixing * dielectric matrix)
  average eigenvalue GAMMA=   1.0216
  2.3963  2.2864  2.2864  0.8497  0.8497  0.8085  0.7060  0.7060  0.2185  0.4284
  0.3497  0.3737

 Free energy of the ion-electron system (eV)
  ---------------------------------------------------
  alpha Z        PSCENC =       333.59272159
  Ewald energy   TEWEN  =    109475.29818643
  -Hartree energ DENC   =   -131021.28034457
  -exchange      EXHF   =         0.00000000
  -V(xc)+E(xc)   XCENC  =       743.84602488
  PAW double counting   =     21591.49094122   -23302.20571266
  entropy T*S    EENTRO =         0.02306536
  eigenvalues    EBANDS =      -702.21514897
  atomic energy  EATOM  =     22817.67997243
  Solvation  Ediel_sol  =         0.00000000
  ---------------------------------------------------
  free energy    TOTEN  =       -63.77029431 eV

  energy without entropy =      -63.79335966  energy(sigma->0) =      -63.77798276


--------------------------------------------------------------------------------------------------------




--------------------------------------- Iteration      1(  18)  ---------------------------------------


    POTLOK:  cpu time    0.0242: real time    0.0244
    SETDIJ:  cpu time    0.0049: real time    0.0049
     EDDAV:  cpu time    3.4250: real time    3.4262
       DOS:  cpu time    0.0023: real time    0.0023
    CHARGE:  cpu time    0.1874: real time    0.1874
    MIXING:  cpu time    0.0019: real time    0.0019
    --------------------------------------------
      LOOP:  cpu time    3.6457: real time    3.6472

 eigenvalue-minimisations  :  3904
 total energy-change (2. order) :-0.2673866E-03  (-0.1356303E-03)
 number of electron     186.0000870 magnetization 
 augmentation part      113.1921882 magnetization 

 Broyden mixing:
  rms(total) = 0.59448E-02    rms(broyden)= 0.59430E-02
  rms(prec ) = 0.65812E-02
  weight for this iteration     100.00

 eigenvalues of (default mixing * dielectric matrix)
  average eigenvalue GAMMA=   1.0184
  2.5303  2.5303  2.3342  0.8757  0.8757  0.7550  0.7009  0.7009  0.2185  0.5632
  0.4307  0.3517  0.3716

 Free energy of the ion-electron system (eV)
  ---------------------------------------------------
  alpha Z        PSCENC =       333.59272159
  Ewald energy   TEWEN  =    109475.29818643
  -Hartree energ DENC   =   -131024.12495627
  -exchange      EXHF   =         0.00000000
  -V(xc)+E(xc)   XCENC  =       743.88086587
  PAW double counting   =     21591.31558865   -23302.23915305
  entropy T*S    EENTRO =         0.02283358
  eigenvalues    EBANDS =      -699.19662092
  atomic energy  EATOM  =     22817.67997243
  Solvation  Ediel_sol  =         0.00000000
  ---------------------------------------------------
  free energy    TOTEN  =       -63.77056169 eV

  energy without entropy =      -63.79339527  energy(sigma->0) =      -63.77817289


--------------------------------------------------------------------------------------------------------




--------------------------------------- Iteration      1(  19)  ---------------------------------------


    POTLOK:  cpu time    0.0236: real time    0.0237
    SETDIJ:  cpu time    0.0033: real time    0.0033
     EDDAV:  cpu time    2.3740: real time    2.3750
       DOS:  cpu time    0.0018: real time    0.0018
    --------------------------------------------
      LOOP:  cpu time    2.4027: real time    2.4038

 eigenvalue-minimisations  :  2080
 total energy-change (2. order) :-0.7465249E-04  (-0.2111448E-04)
 number of electron     186.0000870 magnetization 
 augmentation part      113.1921882 magnetization 

 Free energy of the ion-electron system (eV)
  ---------------------------------------------------
  alpha Z        PSCENC =       333.59272159
  Ewald energy   TEWEN  =    109475.29818643
  -Hartree energ DENC   =   -131024.73457363
  -exchange      EXHF   =         0.00000000
  -V(xc)+E(xc)   XCENC  =       743.87896942
  PAW double counting   =     21590.73479117   -23301.59960320
  entropy T*S    EENTRO =         0.02285550
  eigenvalues    EBANDS =      -698.64395605
  atomic energy  EATOM  =     22817.67997243
  Solvation  Ediel_sol  =         0.00000000
  ---------------------------------------------------
  free energy    TOTEN  =       -63.77063635 eV

  energy without entropy =      -63.79349184  energy(sigma->0) =      -63.77825484


--------------------------------------------------------------------------------------------------------




 average (electrostatic) potential at core
  the test charge radii are     0.9430  0.6991  0.7215
  (the norm of the test charge is              1.0000)
       1 -71.6613       2 -71.6854       3 -71.6856       4 -71.6855       5 -71.8436
       6 -71.8437       7 -71.8436       8 -71.8770       9 -71.8092      10 -71.8402
      11 -71.8092      12 -71.8092      13 -72.6516      14 -71.6553      15 -71.6554
      16 -71.6555      17 -58.5110      18 -79.6540
 
 
 
 E-fermi :  -0.5283     XC(G=0):  -5.0976     alpha+bet : -4.3918


 k-point     1 :       0.0000    0.0000    0.0000
  band No.  band energies     occupation 
      1     -25.1026      2.00000
      2     -10.6250      2.00000
      3      -9.1136      2.00000
      4      -8.2133      2.00000
      5      -7.6829      2.00000
      6      -7.6823      2.00000
      7      -7.4343      2.00000
      8      -6.1502      2.00000
      9      -5.4094      2.00000
     10      -5.1383      2.00000
     11      -5.1382      2.00000
     12      -5.0839      2.00000
     13      -5.0062      2.00000
     14      -5.0061      2.00000
     15      -4.9749      2.00000
     16      -4.7655      2.00000
     17      -4.7654      2.00000
     18      -4.5936      2.00000
     19      -4.5890      2.00000
     20      -4.5890      2.00000
     21      -4.5878      2.00000
     22      -4.5878      2.00000
     23      -4.5606      2.00000
     24      -4.5349      2.00000
     25      -4.3035      2.00000
     26      -4.3034      2.00000
     27      -4.1688      2.00000
     28      -3.8637      2.00000
     29      -3.8637      2.00000
     30      -3.6273      2.00000
     31      -3.4914      2.00000
     32      -3.4800      2.00000
     33      -3.4799      2.00000
     34      -3.4115      2.00000
     35      -3.3950      2.00000
     36      -3.3844      2.00000
     37      -3.3843      2.00000
     38      -3.3289      2.00000
     39      -3.3288      2.00000
     40      -3.2958      2.00000
     41      -3.2958      2.00000
     42      -3.2754      2.00000
     43      -3.2716      2.00000
     44      -3.2714      2.00000
     45      -3.1742      2.00000
     46      -3.1331      2.00000
     47      -3.1329      2.00000
     48      -3.1092      2.00000
     49      -3.1092      2.00000
     50      -3.0422      2.00000
     51      -3.0422      2.00000
     52      -3.0283      2.00000
     53      -2.8484      2.00000
     54      -2.8414      2.00000
     55      -2.8414      2.00000
     56      -2.8378      2.00000
     57      -2.6494      2.00000
     58      -2.6494      2.00000
     59      -2.5694      2.00000
     60      -2.5694      2.00000
     61      -2.4511      2.00000
     62      -2.4510      2.00000
     63      -2.4146      2.00000
     64      -2.3681      2.00000
     65      -2.3329      2.00000
     66      -2.3329      2.00000
     67      -2.2706      2.00000
     68      -2.2705      2.00000
     69      -2.1961      2.00000
     70      -2.1960      2.00000
     71      -2.1576      2.00000
     72      -2.1560      2.00000
     73      -2.1559      2.00000
     74      -2.0988      2.00000
     75      -2.0950      2.00000
     76      -2.0949      2.00000
     77      -2.0729      2.00000
     78      -2.0728      2.00000
     79      -2.0577      2.00000
     80      -2.0576      2.00000
     81      -2.0485      2.00000
     82      -1.9764      2.00000
     83      -1.9727      2.00000
     84      -1.9726      2.00000
     85      -1.9213      2.00000
     86      -1.9124      2.00000
     87      -1.9123      2.00000
     88      -1.8770      2.00000
     89      -1.1987      2.00002
     90      -0.8620      2.03991
     91      -0.8619      2.03994
     92      -0.7343      2.05593
     93      -0.0566     -0.00425
     94      -0.0564     -0.00424
     95       0.2077     -0.00000
     96       0.4436     -0.00000
     97       0.5300     -0.00000
     98       0.5301     -0.00000
     99       0.7504     -0.00000
    100       0.9466     -0.00000
    101       0.9467     -0.00000
    102       1.0199     -0.00000
    103       2.3373     -0.00000
    104       2.3379     -0.00000
    105       3.0348     -0.00000
    106       3.5054     -0.00000
    107       3.6212     -0.00000
    108       3.6212     -0.00000
    109       3.6296     -0.00000
    110       4.2614     -0.00000
    111       4.2617     -0.00000
    112       4.3444     -0.00000

 k-point     2 :       0.2000   -0.0000    0.0000
  band No.  band energies     occupation 
      1     -25.1034      2.00000
      2     -10.6080      2.00000
      3      -8.8258      2.00000
      4      -8.0628      2.00000
      5      -7.7096      2.00000
      6      -7.6901      2.00000
      7      -7.2665      2.00000
      8      -5.9194      2.00000
      9      -5.4475      2.00000
     10      -5.2100      2.00000
     11      -5.1083      2.00000
     12      -5.0751      2.00000
     13      -5.0321      2.00000
     14      -4.9256      2.00000
     15      -4.8940      2.00000
     16      -4.7719      2.00000
     17      -4.6720      2.00000
     18      -4.5736      2.00000
     19      -4.5130      2.00000
     20      -4.5063      2.00000
     21      -4.4717      2.00000
     22      -4.4569      2.00000
     23      -4.4445      2.00000
     24      -4.4029      2.00000
     25      -4.2312      2.00000
     26      -4.2308      2.00000
     27      -4.1106      2.00000
     28      -3.8775      2.00000
     29      -3.8629      2.00000
     30      -3.6739      2.00000
     31      -3.6047      2.00000
     32      -3.5502      2.00000
     33      -3.5009      2.00000
     34      -3.4687      2.00000
     35      -3.4352      2.00000
     36      -3.4283      2.00000
     37      -3.4032      2.00000
     38      -3.3534      2.00000
     39      -3.3313      2.00000
     40      -3.3093      2.00000
     41      -3.2899      2.00000
     42      -3.2699      2.00000
     43      -3.2489      2.00000
     44      -3.2368      2.00000
     45      -3.2285      2.00000
     46      -3.2148      2.00000
     47      -3.2036      2.00000
     48      -3.1729      2.00000
     49      -3.1629      2.00000
     50      -3.1174      2.00000
     51      -3.1030      2.00000
     52      -3.0323      2.00000
     53      -3.0027      2.00000
     54      -2.9405      2.00000
     55      -2.8684      2.00000
     56      -2.8014      2.00000
     57      -2.6996      2.00000
     58      -2.6936      2.00000
     59      -2.6673      2.00000
     60      -2.6353      2.00000
     61      -2.5876      2.00000
     62      -2.5589      2.00000
     63      -2.5164      2.00000
     64      -2.4995      2.00000
     65      -2.4724      2.00000
     66      -2.4619      2.00000
     67      -2.4353      2.00000
     68      -2.3941      2.00000
     69      -2.3920      2.00000
     70      -2.2885      2.00000
     71      -2.2525      2.00000
     72      -2.2353      2.00000
     73      -2.2294      2.00000
     74      -2.2088      2.00000
     75      -2.2085      2.00000
     76      -2.1825      2.00000
     77      -2.1632      2.00000
     78      -2.1588      2.00000
     79      -2.1418      2.00000
     80      -2.1024      2.00000
     81      -2.0934      2.00000
     82      -2.0845      2.00000
     83      -2.0500      2.00000
     84      -2.0392      2.00000
     85      -2.0388      2.00000
     86      -2.0101      2.00000
     87      -1.9998      2.00000
     88      -1.9561      2.00000
     89      -1.9161      2.00000
     90      -1.4691      2.00000
     91      -0.8090      2.06330
     92      -0.7626      2.06997
     93      -0.6925      1.99028
     94      -0.2624     -0.06800
     95      -0.2237     -0.05323
     96      -0.0818     -0.00703
     97       0.6614     -0.00000
     98       0.6873     -0.00000
     99       1.2387     -0.00000
    100       1.6681     -0.00000
    101       1.8199     -0.00000
    102       2.1390     -0.00000
    103       2.6275     -0.00000
    104       2.8097     -0.00000
    105       3.3596     -0.00000
    106       3.7984     -0.00000
    107       3.9174     -0.00000
    108       3.9252     -0.00000
    109       4.3252     -0.00000
    110       4.6471     -0.00000
    111       4.6973     -0.00000
    112       4.7594     -0.00000

 k-point     3 :       0.4000   -0.0000    0.0000
  band No.  band energies     occupation 
      1     -25.1035      2.00000
      2     -10.5826      2.00000
      3      -8.1175      2.00000
      4      -7.7563      2.00000
      5      -7.7127      2.00000
      6      -7.7009      2.00000
      7      -6.6736      2.00000
      8      -6.5426      2.00000
      9      -5.6669      2.00000
     10      -5.2947      2.00000
     11      -4.9494      2.00000
     12      -4.9063      2.00000
     13      -4.8079      2.00000
     14      -4.7272      2.00000
     15      -4.7149      2.00000
     16      -4.6571      2.00000
     17      -4.4848      2.00000
     18      -4.4418      2.00000
     19      -4.3948      2.00000
     20      -4.2929      2.00000
     21      -4.2926      2.00000
     22      -4.2377      2.00000
     23      -4.2114      2.00000
     24      -4.1436      2.00000
     25      -4.0720      2.00000
     26      -4.0520      2.00000
     27      -3.9770      2.00000
     28      -3.9152      2.00000
     29      -3.9151      2.00000
     30      -3.8457      2.00000
     31      -3.7895      2.00000
     32      -3.7555      2.00000
     33      -3.6882      2.00000
     34      -3.6784      2.00000
     35      -3.6531      2.00000
     36      -3.6146      2.00000
     37      -3.5685      2.00000
     38      -3.5318      2.00000
     39      -3.4977      2.00000
     40      -3.4636      2.00000
     41      -3.4425      2.00000
     42      -3.3487      2.00000
     43      -3.3163      2.00000
     44      -3.2578      2.00000
     45      -3.2569      2.00000
     46      -3.2225      2.00000
     47      -3.1745      2.00000
     48      -3.1605      2.00000
     49      -3.1470      2.00000
     50      -3.1352      2.00000
     51      -3.0978      2.00000
     52      -3.0849      2.00000
     53      -3.0589      2.00000
     54      -3.0454      2.00000
     55      -3.0243      2.00000
     56      -2.9724      2.00000
     57      -2.9569      2.00000
     58      -2.9255      2.00000
     59      -2.8993      2.00000
     60      -2.8764      2.00000
     61      -2.8112      2.00000
     62      -2.8065      2.00000
     63      -2.7634      2.00000
     64      -2.7247      2.00000
     65      -2.6843      2.00000
     66      -2.6269      2.00000
     67      -2.5754      2.00000
     68      -2.5482      2.00000
     69      -2.5260      2.00000
     70      -2.5032      2.00000
     71      -2.4996      2.00000
     72      -2.4856      2.00000
     73      -2.4548      2.00000
     74      -2.4492      2.00000
     75      -2.4039      2.00000
     76      -2.3901      2.00000
     77      -2.3690      2.00000
     78      -2.3376      2.00000
     79      -2.2850      2.00000
     80      -2.2766      2.00000
     81      -2.2262      2.00000
     82      -2.1688      2.00000
     83      -2.1526      2.00000
     84      -2.1040      2.00000
     85      -2.0949      2.00000
     86      -2.0469      2.00000
     87      -2.0359      2.00000
     88      -2.0097      2.00000
     89      -1.9602      2.00000
     90      -1.6700      2.00000
     91      -1.1180      2.00025
     92      -0.7210      2.04179
     93      -0.7156      2.03432
     94      -0.2700     -0.06965
     95      -0.2152     -0.04931
     96       0.0654     -0.00022
     97       0.8065     -0.00000
     98       0.8538     -0.00000
     99       1.2539     -0.00000
    100       1.9442     -0.00000
    101       2.1565     -0.00000
    102       2.3595     -0.00000
    103       3.3565     -0.00000
    104       3.7842     -0.00000
    105       4.0262     -0.00000
    106       4.3556     -0.00000
    107       4.6836     -0.00000
    108       4.9313      0.00000
    109       4.9601      0.00000
    110       5.5003      0.00000
    111       5.5678      0.00000
    112       5.6753      0.00000

 k-point     4 :       0.0000    0.2000    0.0000
  band No.  band energies     occupation 
      1     -25.1034      2.00000
      2     -10.6080      2.00000
      3      -8.8258      2.00000
      4      -8.0628      2.00000
      5      -7.7096      2.00000
      6      -7.6901      2.00000
      7      -7.2665      2.00000
      8      -5.9194      2.00000
[...]
      7      -6.9942      2.00000
      8      -6.0487      2.00000
      9      -5.9565      2.00000
     10      -5.8529      2.00000
     11      -5.1530      2.00000
     12      -4.8558      2.00000
     13      -4.8259      2.00000
     14      -4.5276      2.00000
     15      -4.4712      2.00000
     16      -4.4153      2.00000
     17      -4.4078      2.00000
     18      -4.3552      2.00000
     19      -4.3015      2.00000
     20      -4.2378      2.00000
     21      -4.1902      2.00000
     22      -4.1178      2.00000
     23      -4.0880      2.00000
     24      -4.0586      2.00000
     25      -4.0525      2.00000
     26      -4.0368      2.00000
     27      -4.0190      2.00000
     28      -3.9857      2.00000
     29      -3.9468      2.00000
     30      -3.8724      2.00000
     31      -3.8531      2.00000
     32      -3.8294      2.00000
     33      -3.7967      2.00000
     34      -3.7737      2.00000
     35      -3.7383      2.00000
     36      -3.6935      2.00000
     37      -3.6472      2.00000
     38      -3.5910      2.00000
     39      -3.5684      2.00000
     40      -3.5092      2.00000
     41      -3.4875      2.00000
     42      -3.4409      2.00000
     43      -3.4382      2.00000
     44      -3.4053      2.00000
     45      -3.3876      2.00000
     46      -3.3688      2.00000
     47      -3.3107      2.00000
     48      -3.2927      2.00000
     49      -3.2241      2.00000
     50      -3.2098      2.00000
     51      -3.1695      2.00000
     52      -3.1405      2.00000
     53      -3.0928      2.00000
     54      -3.0815      2.00000
     55      -3.0577      2.00000
     56      -3.0187      2.00000
     57      -2.9674      2.00000
     58      -2.8604      2.00000
     59      -2.8355      2.00000
     60      -2.8070      2.00000
     61      -2.7886      2.00000
     62      -2.7467      2.00000
     63      -2.7190      2.00000
     64      -2.7100      2.00000
     65      -2.6665      2.00000
     66      -2.6414      2.00000
     67      -2.6071      2.00000
     68      -2.5732      2.00000
     69      -2.5577      2.00000
     70      -2.5482      2.00000
     71      -2.4888      2.00000
     72      -2.4624      2.00000
     73      -2.4280      2.00000
     74      -2.4055      2.00000
     75      -2.3923      2.00000
     76      -2.3556      2.00000
     77      -2.3113      2.00000
     78      -2.2967      2.00000
     79      -2.2856      2.00000
     80      -2.2782      2.00000
     81      -2.2539      2.00000
     82      -2.1979      2.00000
     83      -2.1821      2.00000
     84      -2.1553      2.00000
     85      -2.1326      2.00000
     86      -2.1168      2.00000
     87      -2.0995      2.00000
     88      -2.0475      2.00000
     89      -2.0236      2.00000
     90      -1.7742      2.00000
     91      -1.6081      2.00000
     92      -1.4674      2.00000
     93      -1.0993      2.00041
     94      -0.4194      0.21252
     95       0.2407     -0.00000
     96       0.8733     -0.00000
     97       1.1154     -0.00000
     98       1.4121     -0.00000
     99       1.7068     -0.00000
    100       2.0443     -0.00000
    101       2.5087     -0.00000
    102       2.9815     -0.00000
    103       3.2872     -0.00000
    104       3.7215     -0.00000
    105       4.0727     -0.00000
    106       4.1576     -0.00000
    107       4.6770     -0.00000
    108       5.0068      0.00000
    109       5.0899      0.00000
    110       5.2220      0.00000
    111       5.4021      0.00000
    112       5.5701      0.00000

 k-point    13 :      -0.2000    0.4000    0.0000
  band No.  band energies     occupation 
      1     -25.1036      2.00000
      2     -10.5757      2.00000
      3      -7.9551      2.00000
      4      -7.7573      2.00000
      5      -7.7181      2.00000
      6      -7.0845      2.00000
      7      -6.9942      2.00000
      8      -6.0487      2.00000
      9      -5.9565      2.00000
     10      -5.8529      2.00000
     11      -5.1530      2.00000
     12      -4.8558      2.00000
     13      -4.8259      2.00000
     14      -4.5277      2.00000
     15      -4.4712      2.00000
     16      -4.4153      2.00000
     17      -4.4078      2.00000
     18      -4.3553      2.00000
     19      -4.3015      2.00000
     20      -4.2378      2.00000
     21      -4.1901      2.00000
     22      -4.1179      2.00000
     23      -4.0881      2.00000
     24      -4.0585      2.00000
     25      -4.0525      2.00000
     26      -4.0367      2.00000
     27      -4.0190      2.00000
     28      -3.9857      2.00000
     29      -3.9469      2.00000
     30      -3.8724      2.00000
     31      -3.8531      2.00000
     32      -3.8294      2.00000
     33      -3.7967      2.00000
     34      -3.7737      2.00000
     35      -3.7384      2.00000
     36      -3.6934      2.00000
     37      -3.6472      2.00000
     38      -3.5911      2.00000
     39      -3.5684      2.00000
     40      -3.5092      2.00000
     41      -3.4875      2.00000
     42      -3.4409      2.00000
     43      -3.4382      2.00000
     44      -3.4053      2.00000
     45      -3.3876      2.00000
     46      -3.3688      2.00000
     47      -3.3107      2.00000
     48      -3.2926      2.00000
     49      -3.2240      2.00000
     50      -3.2098      2.00000
     51      -3.1695      2.00000
     52      -3.1405      2.00000
     53      -3.0928      2.00000
     54      -3.0816      2.00000
     55      -3.0577      2.00000
     56      -3.0186      2.00000
     57      -2.9674      2.00000
     58      -2.8603      2.00000
     59      -2.8355      2.00000
     60      -2.8069      2.00000
     61      -2.7886      2.00000
     62      -2.7467      2.00000
     63      -2.7190      2.00000
     64      -2.7100      2.00000
     65      -2.6665      2.00000
     66      -2.6414      2.00000
     67      -2.6071      2.00000
     68      -2.5731      2.00000
     69      -2.5577      2.00000
     70      -2.5482      2.00000
     71      -2.4888      2.00000
     72      -2.4624      2.00000
     73      -2.4280      2.00000
     74      -2.4054      2.00000
     75      -2.3922      2.00000
     76      -2.3555      2.00000
     77      -2.3113      2.00000
     78      -2.2966      2.00000
     79      -2.2855      2.00000
     80      -2.2781      2.00000
     81      -2.2539      2.00000
     82      -2.1979      2.00000
     83      -2.1821      2.00000
     84      -2.1554      2.00000
     85      -2.1326      2.00000
     86      -2.1168      2.00000
     87      -2.0996      2.00000
     88      -2.0476      2.00000
     89      -2.0236      2.00000
     90      -1.7744      2.00000
     91      -1.6081      2.00000
     92      -1.4673      2.00000
     93      -1.0994      2.00041
     94      -0.4194      0.21270
     95       0.2409     -0.00000
     96       0.8731     -0.00000
     97       1.1153     -0.00000
     98       1.4120     -0.00000
     99       1.7073     -0.00000
    100       2.0442     -0.00000
    101       2.5086     -0.00000
    102       2.9817     -0.00000
    103       3.2869     -0.00000
    104       3.7214     -0.00000
    105       4.0727     -0.00000
    106       4.1577     -0.00000
    107       4.6770     -0.00000
    108       5.0067      0.00000
    109       5.0899      0.00000
    110       5.2217      0.00000
    111       5.4022      0.00000
    112       5.5681      0.00000


--------------------------------------------------------------------------------------------------------


 soft charge-density along one line, spin component           1
         0         1         2         3         4         5         6         7         8         9
 total charge-density along one line
 
 pseudopotential strength for first ion, spin component:           1
 -8.588  -0.000   0.000  -0.004   0.000  -0.422   0.000  -0.000
 -0.000  -8.535  -0.000   0.000  -0.004   0.000  -0.463   0.000
  0.000  -0.000  -8.523  -0.000   0.000  -0.000   0.000  -0.474
 -0.004   0.000  -0.000  -8.535  -0.000   0.003  -0.000   0.000
  0.000  -0.004   0.000  -0.000  -8.588  -0.000   0.003  -0.000
 -0.422   0.000  -0.000   0.003  -0.000   7.296  -0.000   0.000
  0.000  -0.463   0.000  -0.000   0.003  -0.000   7.325  -0.000
 -0.000   0.000  -0.474   0.000  -0.000   0.000  -0.000   7.333
  0.003  -0.000   0.000  -0.463   0.000  -0.003  -0.000  -0.000
 -0.000   0.003  -0.000   0.000  -0.422   0.000  -0.003   0.000
  0.000   0.000  -0.009   0.000   0.000   0.000  -0.000   0.003
  0.000   0.000  -0.017   0.000   0.000   0.000   0.000   0.006
 -0.000  -0.009   0.000  -0.000   0.000   0.000   0.009  -0.000
 -0.000  -0.000  -0.009  -0.000  -0.000  -0.000   0.000   0.009
  0.000  -0.000   0.000  -0.009  -0.000  -0.000  -0.000  -0.000
 -0.000  -0.010   0.000   0.000   0.000  -0.000   0.012  -0.000
  0.000  -0.000  -0.010  -0.000   0.000  -0.000   0.000   0.010
  0.000   0.000   0.000  -0.010  -0.000  -0.000  -0.000   0.000
 total augmentation occupancy for first ion, spin component:           1
  1.900  -0.000   0.000  -0.007   0.000  -0.022   0.000   0.000   0.005   0.000  -0.000   0.000   0.000   0.000   0.007   0.000
 -0.000   1.920  -0.000  -0.000  -0.007   0.000  -0.038  -0.000  -0.000   0.005  -0.000  -0.000   0.005  -0.000   0.000  -0.008
  0.000  -0.000   1.924  -0.000   0.000   0.000   0.000  -0.036   0.000   0.000   0.008   0.010  -0.000   0.042  -0.000   0.000
 -0.007  -0.000  -0.000   1.920  -0.000   0.005  -0.000   0.000  -0.038   0.000   0.000  -0.000   0.000   0.000   0.005  -0.000
  0.000  -0.007   0.000  -0.000   1.900   0.000   0.005   0.000   0.000  -0.022  -0.000   0.000   0.007   0.000   0.000  -0.001
 -0.022   0.000   0.000   0.005   0.000   0.012   0.000  -0.000   0.000  -0.000  -0.000   0.000  -0.000   0.000   0.002   0.000
  0.000  -0.038   0.000  -0.000   0.005   0.000   0.009  -0.000  -0.000   0.000   0.000   0.000   0.015  -0.000  -0.000  -0.001
  0.000  -0.000  -0.036   0.000   0.000  -0.000  -0.000   0.012   0.000  -0.000  -0.043   0.002   0.000   0.022   0.000  -0.000
  0.005  -0.000   0.000  -0.038   0.000   0.000  -0.000   0.000   0.009   0.000  -0.000   0.000  -0.000   0.000   0.015   0.000
  0.000   0.005   0.000   0.000  -0.022  -0.000   0.000  -0.000   0.000   0.012  -0.000  -0.000   0.002  -0.000  -0.000  -0.000
 -0.000  -0.000   0.008   0.000  -0.000  -0.000   0.000  -0.043  -0.000  -0.000   1.603  -0.117   0.000   0.108   0.000  -0.000
  0.000  -0.000   0.010  -0.000   0.000   0.000   0.000   0.002   0.000  -0.000  -0.117   0.014   0.000  -0.020  -0.000   0.000
  0.000   0.005  -0.000   0.000   0.007  -0.000   0.015   0.000  -0.000   0.002   0.000   0.000   0.182   0.000  -0.000  -0.011
  0.000  -0.000   0.042   0.000   0.000   0.000  -0.000   0.022   0.000  -0.000   0.108  -0.020   0.000   0.120   0.000  -0.000
  0.007   0.000  -0.000   0.005   0.000   0.002  -0.000   0.000   0.015  -0.000   0.000  -0.000  -0.000   0.000   0.182   0.000
  0.000  -0.008   0.000  -0.000  -0.001   0.000  -0.001  -0.000   0.000  -0.000  -0.000   0.000  -0.011  -0.000   0.000   0.001
 -0.000  -0.000  -0.012  -0.000  -0.000  -0.000  -0.000  -0.001  -0.000  -0.000  -0.016   0.002   0.000  -0.007  -0.000  -0.000
 -0.001  -0.000   0.000  -0.008   0.000  -0.000   0.000  -0.000  -0.001  -0.000  -0.000   0.000   0.000  -0.000  -0.011  -0.000


------------------------ aborting loop because EDIFF is reached ----------------------------------------


    CHARGE:  cpu time    0.1845: real time    0.1845
    FORLOC:  cpu time    0.0067: real time    0.0067
    FORNL :  cpu time    0.7420: real time    0.7423
    FORCOR:  cpu time    0.0284: real time    0.0285
    FORHAR:  cpu time    0.0104: real time    0.0105
    MIXING:  cpu time    0.0018: real time    0.0018
    OFIELD:  cpu time    0.0000: real time    0.0000

 VOLUME and BASIS-vectors are now :
 -----------------------------------------------------------------------------
  energy-cutoff  :      350.00
  volume of cell :      617.47
      direct lattice vectors                 reciprocal lattice vectors
     5.199963631  0.000000000  0.000000000     0.192309037 -0.111029674  0.000000000
     2.599981815  4.503300603  0.000000000     0.000000000  0.222059349  0.000000000
     0.000000000  0.000000000 26.368628788     0.000000000  0.000000000  0.037923853

  length of vectors
     5.199963631  5.199963631 26.368628788     0.222059349  0.222059349  0.037923853


 FORCES acting on ions
    electron-ion (+dipol)            ewald-force                    non-local-force                 convergence-correction
 -----------------------------------------------------------------------------------------------
   0.831E-03 0.630E-03 0.394E+04   -.890E-03 -.514E-03 -.394E+04   -.134E-03 -.643E-04 -.126E+01   0.191E-03 -.576E-04 0.119E-01
   -.721E-03 0.373E+00 0.394E+04   0.872E-03 -.251E+00 -.394E+04   0.359E-04 -.998E-01 -.248E+01   -.194E-03 0.168E-02 0.106E-01
   0.323E+00 -.187E+00 0.394E+04   -.217E+00 0.126E+00 -.394E+04   -.865E-01 0.499E-01 -.248E+01   0.151E-02 -.924E-03 0.109E-01
   -.323E+00 -.187E+00 0.394E+04   0.217E+00 0.125E+00 -.394E+04   0.865E-01 0.499E-01 -.248E+01   -.147E-02 -.683E-03 0.107E-01
   0.105E+01 0.605E+00 0.149E+04   -.126E+01 -.728E+00 -.149E+04   0.231E+00 0.133E+00 -.109E+01   -.342E-02 -.216E-02 0.244E-01
   -.105E+01 0.612E+00 0.149E+04   0.126E+01 -.736E+00 -.149E+04   -.231E+00 0.133E+00 -.109E+01   0.347E-02 -.207E-02 0.243E-01
   0.497E-02 -.122E+01 0.149E+04   -.495E-02 0.146E+01 -.149E+04   -.127E-03 -.266E+00 -.109E+01   0.747E-04 0.413E-02 0.243E-01
   -.191E-02 -.128E-02 0.148E+04   0.207E-02 0.119E-02 -.148E+04   -.860E-04 0.209E-04 -.903E+00   -.858E-04 0.108E-03 0.202E-01
   0.289E-01 -.268E+01 -.101E+04   -.285E-01 0.263E+01 0.101E+04   -.653E-03 0.388E-01 0.399E+00   0.873E-04 -.810E-02 0.239E+00
   -.181E-01 -.104E-01 -.981E+03   0.180E-01 0.104E-01 0.979E+03   0.350E-03 0.210E-03 0.135E+01   -.747E-04 -.146E-03 0.242E+00
   0.230E+01 0.133E+01 -.101E+04   -.225E+01 -.130E+01 0.101E+04   -.331E-01 -.191E-01 0.399E+00   0.686E-02 0.410E-02 0.239E+00
   -.231E+01 0.137E+01 -.101E+04   0.226E+01 -.134E+01 0.101E+04   0.333E-01 -.200E-01 0.399E+00   -.683E-02 0.418E-02 0.239E+00
   0.636E-02 0.359E-02 -.345E+04   -.638E-02 -.370E-02 0.344E+04   -.328E-04 -.407E-04 0.143E+01   0.472E-04 0.130E-03 -.518E-01
   -.403E-02 0.500E+01 -.347E+04   0.399E-02 -.501E+01 0.347E+04   -.193E-04 -.125E-02 0.331E+01   -.176E-04 0.197E-02 -.387E-01
   0.433E+01 -.251E+01 -.347E+04   -.434E+01 0.251E+01 0.347E+04   -.102E-02 0.604E-03 0.331E+01   0.158E-02 -.108E-02 -.387E-01
   -.434E+01 -.250E+01 -.347E+04   0.434E+01 0.251E+01 0.347E+04   0.107E-02 0.649E-03 0.331E+01   -.161E-02 -.104E-02 -.389E-01
   -.392E-03 -.220E-03 -.144E+04   0.538E-03 0.299E-03 0.142E+04   -.151E-03 -.734E-04 0.191E+02   0.103E-04 0.120E-04 0.856E-02
   0.177E-02 0.999E-03 -.236E+04   -.227E-02 -.130E-02 0.242E+04   0.465E-03 0.301E-03 -.597E+02   0.145E-04 -.881E-05 0.428E-01
 -----------------------------------------------------------------------------------------------
   -.244E-03 -.116E-03 0.386E+02   -.207E-13 -.243E-13 0.000E+00   0.105E-03 0.133E-03 -.396E+02   0.149E-03 0.229E-04 0.980E+00
 
 
 POSITION                                       TOTAL-FORCE (eV/Angst)
 -----------------------------------------------------------------------------------
      0.00000      0.00000     10.00000        -0.000004     -0.000008      0.103705
      2.59998      0.00000     10.00000        -0.000008      0.023955      0.034423
      1.29999      2.25165     10.00000         0.020738     -0.011980      0.034427
      3.89997      2.25165     10.00000        -0.020720     -0.011960      0.034614
      1.29999      0.75055     12.12288         0.013044      0.007494     -0.083744
      3.89997      0.75055     12.12288        -0.012938      0.007380     -0.083440
      2.59998      3.00220     12.12288        -0.000036     -0.014867     -0.083424
      5.19996      3.00220     12.12288        -0.000015      0.000040      0.035784
      5.20003      1.48647     14.21740        -0.000154     -0.020360     -0.003534
      2.59997      1.50109     14.19527         0.000126      0.000082     -0.009122
      6.51254      3.76002     14.21749         0.017786      0.010257     -0.003547
      3.88734      3.76012     14.21740        -0.017714      0.010049     -0.003537
      0.00002      0.00001     16.41410        -0.000009     -0.000018     -0.038800
      2.59998      0.00486     16.25824        -0.000076     -0.008946     -0.002750
      1.30420      2.24922     16.25824        -0.007785      0.004391     -0.002727
      3.89576      2.24922     16.25791         0.007788      0.004485     -0.000399
      7.79994      4.50330     18.28167         0.000005      0.000016      0.045674
      7.79993      4.50329     19.44396        -0.000028     -0.000009      0.026395
 -----------------------------------------------------------------------------------
    total drift:                                0.000010      0.000040     -0.053693


--------------------------------------------------------------------------------------------------------



  FREE ENERGIE OF THE ION-ELECTRON SYSTEM (eV)
  ---------------------------------------------------
  free  energy   TOTEN  =       -63.77063635 eV

  energy  without entropy=      -63.79349184  energy(sigma->0) =      -63.77825484
 


--------------------------------------------------------------------------------------------------------


    POTLOK:  cpu time    0.0260: real time    0.0264


--------------------------------------------------------------------------------------------------------


     LOOP+:  cpu time   67.3522: real time   67.6768
    4ORBIT:  cpu time    0.0000: real time    0.0000

volume of typ            1:    36.6 %

volume of typ            2:     0.3 %

volume of typ            3:     0.3 %
 
total charge     
 
# of ion       s       p       d       tot
------------------------------------------
    1        0.665   0.511   9.476  10.652
    2        0.656   0.511   9.480  10.647
    3        0.656   0.511   9.480  10.647
    4        0.656   0.511   9.480  10.647
    5        0.664   0.679   9.508  10.850
    6        0.664   0.679   9.508  10.850
    7        0.664   0.679   9.508  10.850
    8        0.657   0.678   9.501  10.837
    9        0.663   0.700   9.506  10.869
   10        0.676   0.702   9.510  10.888
   11        0.663   0.700   9.506  10.869
   12        0.663   0.700   9.506  10.869
   13        0.676   0.888   9.486  11.050
   14        0.665   0.532   9.500  10.697
   15        0.665   0.532   9.500  10.697
   16        0.665   0.533   9.500  10.697
   17        0.860   1.368   0.084   2.312
   18        1.443   3.205   0.044   4.692
--------------------------------------------------
tot          12.92   14.62  152.08  179.62
 

 total amount of memory used by VASP MPI-rank0    51084. kBytes
=======================================================================

   base      :      30000. kBytes
   nonlr-proj:       2250. kBytes
   fftplans  :       1786. kBytes
   grid      :       3064. kBytes
   one-center:         77. kBytes
   wavefun   :      13907. kBytes
 
  
  
 General timing and accounting informations for this job:
 ========================================================
  
                  Total CPU time used (sec):       70.228
                            User time (sec):       69.020
                          System time (sec):        1.209
                         Elapsed time (sec):       72.740
  
                   Maximum memory used (kb):       96380.
                   Average memory used (kb):           0.
  
                          Minor page faults:        35940
                          Major page faults:           75
                 Voluntary context switches:         1011
