PROCAR new format
# of k-points:   13         # of bands:  112         # of ions:   18

 k-point     1 :    0.00000000 0.00000000 0.00000000     weight = 0.04000000

band     1 # energy  -25.10258334 # occ.  2.00000000
 
ion      s      p      d    tot
    1  0.000  0.000  0.000  0.000
    2  0.000  0.000  0.000  0.000
    3  0.000  0.000  0.000  0.000
    4  0.000  0.000  0.000  0.000
    5  0.000  0.000  0.000  0.000
    6  0.000  0.000  0.000  0.000
    7  0.000  0.000  0.000  0.000
    8  0.000  0.000  0.000  0.000
    9  0.000  0.000  0.000  0.000
   10  0.000  0.000  0.000  0.000
   11  0.000  0.000  0.000  0.000
   12  0.000  0.000  0.000  0.000
   13  0.000  0.000  0.000  0.001
   14  0.000  0.000  0.000  0.000
   15  0.000  0.000  0.000  0.000
   16  0.000  0.000  0.000  0.000
   17  0.134  0.104  0.015  0.253
   18  0.564  0.082  0.005  0.650
tot    0.698  0.186  0.021  0.904
 
band     2 # energy  -10.62502348 # occ.  2.00000000
 
ion      s      p      d    tot
    1  0.000  0.000  0.000  0.000
    2  0.000  0.000  0.000  0.000
    3  0.000  0.000  0.000  0.000
    4  0.000  0.000  0.000  0.000
    5  0.000  0.000  0.000  0.000
    6  0.000  0.000  0.000  0.000
    7  0.000  0.000  0.000  0.000
    8  0.000  0.000  0.000  0.000
    9  0.002  0.000  0.000  0.002
   10  0.001  0.000  0.000  0.001
   11  0.002  0.000  0.000  0.002
   12  0.002  0.000  0.000  0.002
   13  0.062  0.032  0.037  0.130
   14  0.006  0.000  0.000  0.006
   15  0.006  0.000  0.000  0.006
   16  0.006  0.000  0.000  0.006
   17  0.236  0.003  0.000  0.239
   18  0.132  0.208  0.003  0.343
tot    0.454  0.245  0.041  0.740
 
band     3 # energy   -9.11364484 # occ.  2.00000000
 
ion      s      p      d    tot
    1  0.021  0.003  0.000  0.024
    2  0.021  0.003  0.000  0.025
    3  0.021  0.003  0.000  0.025
    4  0.021  0.003  0.000  0.025
    5  0.079  0.001  0.000  0.080
    6  0.079  0.001  0.000  0.080
    7  0.079  0.001  0.000  0.080
    8  0.078  0.001  0.000  0.079
    9  0.086  0.000  0.000  0.086
   10  0.087  0.000  0.000  0.088
   11  0.086  0.000  0.000  0.086
   12  0.086  0.000  0.000  0.086
   13  0.031  0.002  0.000  0.034
   14  0.030  0.003  0.000  0.034
   15  0.030  0.003  0.000  0.034
   16  0.030  0.003  0.000  0.034
   17  0.002  0.008  0.000  0.009
   18  0.006  0.029  0.000  0.035
tot    0.876  0.065  0.002  0.943
 
band     4 # energy   -8.21332054 # occ.  2.00000000
 
ion      s      p      d    tot
    1  0.033  0.003  0.000  0.036
    2  0.033  0.003  0.000  0.036
    3  0.033  0.003  0.000  0.036
    4  0.033  0.003  0.000  0.036
    5  0.036  0.002  0.001  0.039
    6  0.036  0.002  0.001  0.039
    7  0.036  0.002  0.001  0.039
    8  0.036  0.002  0.001  0.039
    9  0.003  0.008  0.000  0.011
   10  0.001  0.007  0.000  0.009
   11  0.003  0.008  0.000  0.011
   12  0.003  0.008  0.000  0.011
   13  0.110  0.013  0.025  0.148
   14  0.034  0.000  0.002  0.036
   15  0.034  0.000  0.002  0.036
   16  0.034  0.000  0.002  0.036
   17  0.004  0.101  0.001  0.106
   18  0.015  0.156  0.002  0.173
tot    0.517  0.320  0.040  0.877
 
band     5 # energy   -7.68290045 # occ.  2.00000000
 
ion      s      p      d    tot
    1  0.000  0.000  0.000  0.000
    2  0.000  0.000  0.000  0.000
    3  0.000  0.000  0.000  0.000
    4  0.000  0.000  0.000  0.000
    5  0.000  0.000  0.000  0.000
    6  0.000  0.000  0.000  0.000
    7  0.000  0.000  0.000  0.000
    8  0.000  0.000  0.000  0.000
    9  0.000  0.000  0.000  0.000
   10  0.000  0.000  0.000  0.000
   11  0.000  0.000  0.000  0.000
   12  0.000  0.000  0.000  0.000
   13  0.000  0.003  0.015  0.019
   14  0.000  0.000  0.001  0.001
   15  0.000  0.000  0.001  0.001
   16  0.000  0.000  0.000  0.000
   17  0.000  0.158  0.007  0.165
   18  0.000  0.456  0.005  0.462
tot    0.000  0.618  0.030  0.648
 
band     6 # energy   -7.68229539 # occ.  2.00000000
 
ion      s      p      d    tot
    1  0.000  0.000  0.000  0.000
    2  0.000  0.000  0.000  0.000
    3  0.000  0.000  0.000  0.000
    4  0.000  0.000  0.000  0.000
    5  0.000  0.000  0.000  0.000
    6  0.000  0.000  0.000  0.000
    7  0.000  0.000  0.000  0.000
    8  0.000  0.000  0.000  0.000
    9  0.000  0.000  0.000  0.000
   10  0.000  0.000  0.000  0.000
   11  0.000  0.000  0.000  0.000
   12  0.000  0.000  0.000  0.000
   13  0.000  0.003  0.015  0.019
   14  0.000  0.000  0.000  0.001
   15  0.000  0.000  0.000  0.001
   16  0.000  0.001  0.001  0.002
   17  0.000  0.158  0.007  0.165
   18  0.000  0.456  0.005  0.462
tot    0.000  0.618  0.030  0.648
 
band     7 # energy   -7.43432008 # occ.  2.00000000
 
ion      s      p      d    tot
    1  0.044  0.001  0.002  0.048
    2  0.045  0.001  0.002  0.048
    3  0.045  0.001  0.002  0.048
    4  0.045  0.001  0.002  0.048
    5  0.007  0.011  0.001  0.018
    6  0.007  0.011  0.001  0.018
    7  0.007  0.011  0.001  0.018
    8  0.007  0.011  0.000  0.018
    9  0.040  0.002  0.004  0.046
   10  0.050  0.003  0.002  0.055
   11  0.040  0.002  0.004  0.046
   12  0.040  0.002  0.004  0.046
   13  0.006  0.057  0.087  0.150
   14  0.019  0.007  0.001  0.027
   15  0.019  0.007  0.001  0.027
   16  0.019  0.007  0.001  0.027
   17  0.022  0.099  0.001  0.122
   18  0.004  0.094  0.001  0.099
tot    0.466  0.328  0.119  0.913
 
band     8 # energy   -6.15015822 # occ.  2.00000000
 
ion      s      p      d    tot
    1  0.049  0.000  0.018  0.067
    2  0.049  0.000  0.018  0.068
    3  0.049  0.000  0.018  0.068
    4  0.049  0.000  0.018  0.068
    5  0.016  0.012  0.009  0.036
    6  0.016  0.012  0.009  0.036
    7  0.016  0.012  0.009  0.036
    8  0.017  0.012  0.008  0.037
    9  0.009  0.015  0.005  0.029
   10  0.006  0.016  0.006  0.028
   11  0.009  0.015  0.005  0.029
   12  0.009  0.015  0.005  0.029
   13  0.020  0.007  0.129  0.157
   14  0.059  0.000  0.020  0.079
   15  0.059  0.000  0.020  0.079
   16  0.059  0.000  0.020  0.079
   17  0.006  0.011  0.000  0.018
   18  0.000  0.005  0.000  0.005
tot    0.498  0.132  0.318  0.948
 
band     9 # energy   -5.40939111 # occ.  2.00000000
 
ion      s      p      d    tot
    1  0.015  0.002  0.024  0.040
    2  0.016  0.002  0.023  0.041
    3  0.016  0.002  0.023  0.041
    4  0.016  0.002  0.023  0.041
    5  0.023  0.000  0.057  0.079
    6  0.023  0.000  0.057  0.079
    7  0.023  0.000  0.056  0.079
    8  0.019  0.000  0.060  0.080
    9  0.021  0.000  0.054  0.075
   10  0.017  0.001  0.057  0.075
   11  0.021  0.000  0.054  0.075
   12  0.021  0.000  0.054  0.075
   13  0.009  0.000  0.079  0.089
   14  0.012  0.002  0.023  0.037
   15  0.012  0.002  0.023  0.037
   16  0.012  0.002  0.023  0.037
   17  0.000  0.000  0.000  0.001
   18  0.000  0.000  0.000  0.000
tot    0.274  0.018  0.692  0.984
 
band    10 # energy   -5.13827369 # occ.  2.00000000
 
ion      s      p      d    tot
    1  0.000  0.002  0.017  0.018
    2  0.002  0.002  0.014  0.018
    3  0.002  0.002  0.015  0.018
    4  0.008  0.002  0.006  0.017
    5  0.045  0.001  0.025  0.071
    6  0.009  0.001  0.080  0.090
    7  0.013  0.001  0.074  0.088
    8  0.000  0.001  0.095  0.096
    9  0.017  0.000  0.082  0.100
   10  0.000  0.000  0.105  0.106
   11  0.059  0.000  0.034  0.093
   12  0.012  0.000  0.088  0.101
   13  0.000  0.002  0.078  0.079
   14  0.005  0.003  0.031  0.039
   15  0.003  0.003  0.034  0.040
   16  0.017  0.003  0.009  0.029
   17  0.000  0.000  0.000  0.000
   18  0.000  0.001  0.000  0.001
tot    0.194  0.024  0.786  1.004
 
band    11 # energy   -5.13823612 # occ.  2.00000000
 
ion      s      p      d    tot
    1  0.000  0.002  0.017  0.018
    2  0.006  0.002  0.009  0.017
    3  0.007  0.002  0.008  0.017
    4  0.000  0.002  0.017  0.019
    5  0.000  0.001  0.094  0.095
    6  0.036  0.001  0.039  0.076
    7  0.032  0.001  0.045  0.078
    8  0.000  0.001  0.095  0.096
    9  0.042  0.000  0.054  0.096
   10  0.000  0.000  0.105  0.106
   11  0.000  0.000  0.102  0.103
   12  0.047  0.000  0.048  0.095
   13  0.000  0.002  0.078  0.080
   14  0.012  0.003  0.018  0.033
   15  0.013  0.003  0.016  0.032
   16  0.000  0.003  0.040  0.043
   17  0.000  0.000  0.000  0.000
   18  0.000  0.001  0.000  0.001
tot    0.194  0.024  0.786  1.004
 
band    12 # energy   -5.08386987 # occ.  2.00000000
 
ion      s      p      d    tot
    1  0.013  0.003  0.006  0.021
    2  0.001  0.002  0.021  0.024
    3  0.001  0.002  0.021  0.024
    4  0.001  0.002  0.021  0.024
    5  0.006  0.001  0.109  0.117
    6  0.006  0.001  0.109  0.117
    7  0.006  0.001  0.109  0.117
    8  0.057  0.000  0.014  0.072
    9  0.008  0.001  0.088  0.096
   10  0.068  0.001  0.025  0.094
   11  0.008  0.001  0.088  0.096
   12  0.008  0.001  0.088  0.096
   13  0.006  0.006  0.000  0.012
   14  0.000  0.003  0.027  0.030
   15  0.000  0.003  0.027  0.030
   16  0.000  0.003  0.027  0.030
   17  0.001  0.001  0.000  0.002
   18  0.000  0.001  0.000  0.001
tot    0.191  0.033  0.779  1.002
 
band    13 # energy   -5.00618947 # occ.  2.00000000
 
ion      s      p      d    tot
    1  0.000  0.002  0.018  0.020
    2  0.000  0.001  0.005  0.006
    3  0.000  0.001  0.007  0.008
    4  0.000  0.002  0.018  0.020
    5  0.000  0.001  0.106  0.107
    6  0.013  0.001  0.041  0.055
    7  0.015  0.000  0.030  0.046
    8  0.000  0.001  0.106  0.108
    9  0.015  0.000  0.038  0.053
   10  0.000  0.000  0.139  0.139
   11  0.000  0.000  0.134  0.134
   12  0.013  0.000  0.052  0.065
   13  0.000  0.002  0.104  0.107
   14  0.005  0.001  0.015  0.021
   15  0.004  0.002  0.020  0.025
   16  0.000  0.004  0.049  0.053
   17  0.000  0.000  0.000  0.000
   18  0.000  0.002  0.000  0.002
tot    0.065  0.023  0.882  0.970
 
band    14 # energy   -5.00613611 # occ.  2.00000000
 
ion      s      p      d    tot
    1  0.000  0.002  0.018  0.020
    2  0.000  0.002  0.015  0.017
    3  0.000  0.002  0.013  0.015
    4  0.001  0.000  0.002  0.003
    5  0.019  0.000  0.012  0.031
    6  0.006  0.001  0.077  0.084
    7  0.004  0.001  0.088  0.093
    8  0.000  0.001  0.106  0.108
    9  0.004  0.000  0.112  0.115
   10  0.000  0.000  0.139  0.139
   11  0.018  0.000  0.016  0.034
   12  0.006  0.000  0.097  0.103
   13  0.000  0.002  0.104  0.107
   14  0.001  0.004  0.041  0.045
   15  0.002  0.003  0.036  0.040
   16  0.006  0.001  0.007  0.013
   17  0.000  0.000  0.000  0.000
   18  0.000  0.002  0.000  0.002
tot    0.065  0.023  0.882  0.970
 
band    15 # energy   -4.97490276 # occ.  2.00000000
 
ion      s      p      d    tot
    1  0.001  0.000  0.001  0.001
    2  0.000  0.003  0.023  0.026
    3  0.000  0.003  0.023  0.026
    4  0.000  0.003  0.023  0.026
    5  0.003  0.001  0.124  0.129
    6  0.003  0.001  0.124  0.129
    7  0.003  0.001  0.124  0.129
    8  0.031  0.000  0.000  0.031
    9  0.002  0.001  0.118  0.121
   10  0.020  0.000  0.000  0.020
   11  0.002  0.001  0.118  0.121
   12  0.002  0.001  0.118  0.121
   13  0.002  0.000  0.002  0.004
   14  0.000  0.003  0.027  0.030
   15  0.000  0.003  0.027  0.030
   16  0.000  0.003  0.027  0.030
   17  0.000  0.000  0.000  0.000
   18  0.000  0.000  0.000  0.000
tot    0.071  0.025  0.877  0.973
 
band    16 # energy   -4.76547355 # occ.  2.00000000
 
ion      s      p      d    tot
    1  0.000  0.002  0.017  0.019
    2  0.001  0.001  0.007  0.009
    3  0.001  0.001  0.008  0.011
    4  0.000  0.002  0.017  0.019
    5  0.000  0.000  0.069  0.070
    6  0.016  0.000  0.028  0.044
    7  0.019  0.000  0.020  0.039
    8  0.000  0.000  0.071  0.071
    9  0.000  0.006  0.004  0.010
   10  0.000  0.009  0.002  0.011
   11  0.000  0.009  0.002  0.011
   12  0.000  0.006  0.003  0.010
   13  0.000  0.000  0.334  0.334
   14  0.032  0.000  0.052  0.085
   15  0.027  0.000  0.068  0.095
   16  0.000  0.000  0.147  0.148
   17  0.000  0.000  0.000  0.000
   18  0.000  0.000  0.000  0.000
tot    0.096  0.038  0.849  0.983
 
band    17 # energy   -4.76540830 # occ.  2.00000000
 
ion      s      p      d    tot
    1  0.000  0.002  0.017  0.019
    2  0.000  0.002  0.015  0.017
    3  0.001  0.002  0.013  0.015
    4  0.002  0.001  0.004  0.007
    5  0.023  0.000  0.009  0.032
    6  0.007  0.000  0.050  0.058
    7  0.004  0.000  0.058  0.063
    8  0.000  0.000  0.071  0.071
    9  0.000  0.009  0.002  0.011
   10  0.000  0.009  0.002  0.011
   11  0.000  0.005  0.004  0.009
   12  0.000  0.008  0.003  0.011
   13  0.000  0.000  0.334  0.334
   14  0.007  0.000  0.126  0.134
   15  0.013  0.000  0.111  0.123
   16  0.039  0.000  0.031  0.071
   17  0.000  0.000  0.000  0.000
   18  0.000  0.000  0.000  0.000
tot    0.096  0.038  0.849  0.983
 
band    18 # energy   -4.59355785 # occ.  2.00000000
 
ion      s      p      d    tot
    1  0.004  0.000  0.000  0.004
    2  0.000  0.002  0.025  0.027
    3  0.000  0.002  0.025  0.027
    4  0.000  0.002  0.025  0.027
    5  0.001  0.001  0.031  0.032
    6  0.001  0.001  0.031  0.032
    7  0.001  0.001  0.031  0.032
    8  0.007  0.000  0.004  0.011
    9  0.000  0.005  0.029  0.034
   10  0.000  0.002  0.053  0.055
   11  0.000  0.005  0.029  0.034
   12  0.000  0.005  0.029  0.034
   13  0.027  0.001  0.058  0.085
   14  0.006  0.000  0.176  0.182
   15  0.006  0.000  0.176  0.182
   16  0.006  0.000  0.176  0.182
   17  0.000  0.000  0.000  0.000
   18  0.000  0.000  0.000  0.000
tot    0.058  0.026  0.899  0.983
 
band    19 # energy   -4.58903283 # occ.  2.00000000
 
ion      s      p      d    tot
    1  0.000  0.000  0.174  0.174
    2  0.037  0.001  0.027  0.064
    3  0.014  0.001  0.118  0.133
    4  0.005  0.000  0.157  0.162
    5  0.000  0.006  0.035  0.041
    6  0.000  0.004  0.034  0.039
    7  0.000  0.001  0.032  0.033
    8  0.000  0.006  0.037  0.043
    9  0.002  0.002  0.018  0.023
   10  0.000  0.001  0.016  0.017
   11  0.000  0.001  0.017  0.019
   12  0.001  0.002  0.018  0.020
   13  0.000  0.001  0.133  0.133
   14  0.000  0.001  0.008  0.009
   15  0.000  0.002  0.026  0.027
   16  0.000  0.002  0.033  0.035
   17  0.000  0.000  0.000  0.000
   18  0.000  0.004  0.000  0.004
tot    0.060  0.035  0.882  0.977
 
band    20 # energy   -4.58900344 # occ.  2.00000000
 
ion      s      p      d    tot
    1  0.000  0.000  0.172  0.172
    2  0.001  0.000  0.173  0.174
    3  0.023  0.001  0.083  0.106
    4  0.032  0.001  0.044  0.077
    5  0.000  0.002  0.033  0.035
    6  0.000  0.003  0.034  0.037
    7  0.000  0.006  0.035  0.041
    8  0.000  0.006  0.036  0.043
    9  0.000  0.001  0.018  0.019
   10  0.000  0.001  0.017  0.018
   11  0.002  0.002  0.019  0.023
   12  0.001  0.002  0.019  0.022
   13  0.000  0.001  0.133  0.134
   14  0.000  0.002  0.037  0.039
   15  0.000  0.001  0.019  0.021
   16  0.000  0.001  0.012  0.013
   17  0.000  0.000  0.000  0.000
   18  0.000  0.004  0.000  0.004
tot    0.059  0.035  0.884  0.978
 
band    21 # energy   -4.58781876 # occ.  2.00000000
 
ion      s      p      d    tot
    1  0.000  0.001  0.025  0.025
    2  0.004  0.001  0.021  0.026
    3  0.003  0.001  0.022  0.026
    4  0.014  0.003  0.011  0.028
    5  0.000  0.003  0.051  0.055
    6  0.000  0.002  0.090  0.092
    7  0.000  0.002  0.086  0.087
    8  0.000  0.001  0.103  0.104
    9  0.001  0.000  0.122  0.124
   10  0.000  0.000  0.148  0.148
   11  0.004  0.001  0.075  0.080
   12  0.001  0.000  0.129  0.130
   13  0.000  0.000  0.016  0.016
   14  0.000  0.001  0.013  0.014
   15  0.000  0.001  0.011  0.011
   16  0.002  0.003  0.029  0.034
   17  0.000  0.000  0.000  0.000
   18  0.000  0.000  0.000  0.000
tot    0.029  0.020  0.953  1.002
 
band    22 # energy   -4.58781141 # occ.  2.00000000
 
ion      s      p      d    tot
    1  0.000  0.001  0.024  0.024
    2  0.009  0.002  0.015  0.027
    3  0.011  0.002  0.013  0.027
    4  0.000  0.001  0.024  0.025
    5  0.000  0.001  0.100  0.101
    6  0.000  0.003  0.061  0.064
    7  0.000  0.003  0.066  0.069
    8  0.000  0.001  0.103  0.104
    9  0.003  0.001  0.096  0.099
   10  0.000  0.000  0.149  0.149
   11  0.000  0.000  0.143  0.143
   12  0.003  0.001  0.089  0.093
   13  0.000  0.000  0.016  0.016
   14  0.001  0.002  0.022  0.025
   15  0.001  0.002  0.025  0.028
   16  0.000  0.000  0.006  0.006
   17  0.000  0.000  0.000  0.000
   18  0.000  0.000  0.000  0.000
tot    0.028  0.020  0.953  1.002
 
band    23 # energy   -4.56055224 # occ.  2.00000000
 
ion      s      p      d    tot
    1  0.050  0.003  0.000  0.053
    2  0.005  0.000  0.130  0.136
    3  0.005  0.000  0.130  0.136
    4  0.005  0.000  0.130  0.136
    5  0.000  0.006  0.046  0.052
    6  0.000  0.006  0.046  0.052
    7  0.000  0.006  0.046  0.052
    8  0.004  0.005  0.001  0.010
    9  0.002  0.001  0.054  0.057
   10  0.012  0.005  0.000  0.018
   11  0.002  0.001  0.054  0.057
   12  0.002  0.001  0.054  0.057
   13  0.012  0.005  0.003  0.020
   14  0.002  0.001  0.047  0.049
   15  0.002  0.001  0.047  0.049
   16  0.002  0.001  0.047  0.049
   17  0.000  0.001  0.000  0.001
   18  0.000  0.000  0.000  0.000
tot    0.106  0.046  0.833  0.986
 
band    24 # energy   -4.53494422 # occ.  2.00000000
 
ion      s      p      d    tot
    1  0.007  0.000  0.023  0.030
    2  0.001  0.000  0.073  0.074
    3  0.001  0.000  0.073  0.074
    4  0.001  0.000  0.073  0.074
    5  0.000  0.002  0.081  0.083
    6  0.000  0.002  0.081  0.083
    7  0.000  0.002  0.081  0.083
    8  0.000  0.000  0.099  0.099
    9  0.000  0.000  0.086  0.087
   10  0.000  0.000  0.060  0.061
   11  0.000  0.000  0.086  0.087
   12  0.000  0.000  0.086  0.087
   13  0.003  0.007  0.003  0.013
   14  0.000  0.001  0.018  0.020
   15  0.000  0.001  0.018  0.020
   16  0.000  0.001  0.018  0.020
   17  0.001  0.001  0.000  0.002
   18  0.000  0.001  0.000  0.001
tot    0.014  0.021  0.960  0.995
 
band    25 # energy   -4.30346031 # occ.  2.00000000
 
ion      s      p      d    tot
    1  0.000  0.002  0.107  0.110
    2  0.003  0.001  0.050  0.054
    3  0.001  0.002  0.081  0.084
    4  0.000  0.002  0.105  0.107
    5  0.000  0.000  0.070  0.070
    6  0.000  0.002  0.060  0.062
    7  0.001  0.003  0.046  0.050
    8  0.000  0.000  0.072  0.072
    9  0.002  0.008  0.005  0.014
   10  0.000  0.006  0.017  0.023
   11  0.000  0.006  0.015  0.021
   12  0.001  0.007  0.010  0.018
   13  0.000  0.000  0.211  0.211
   14  0.001  0.001  0.015  0.017
   15  0.000  0.001  0.026  0.027
   16  0.000  0.000  0.034  0.035
   17  0.000  0.000  0.001  0.001
   18  0.000  0.008  0.000  0.008
tot    0.009  0.050  0.925  0.983
 
band    26 # energy   -4.30344161 # occ.  2.00000000
 
ion      s      p      d    tot
    1  0.000  0.002  0.107  0.110
    2  0.000  0.002  0.107  0.110
    3  0.001  0.002  0.076  0.079
    4  0.002  0.001  0.052  0.056
    5  0.001  0.003  0.048  0.051
    6  0.000  0.002  0.058  0.060
    7  0.000  0.000  0.071  0.071
    8  0.000  0.000  0.072  0.072
    9  0.000  0.006  0.015  0.022
   10  0.000  0.006  0.017  0.023
   11  0.002  0.007  0.005  0.014
   12  0.001  0.007  0.009  0.017
   13  0.000  0.000  0.211  0.211
   14  0.000  0.000  0.035  0.036
   15  0.000  0.001  0.024  0.025
   16  0.001  0.001  0.016  0.018
   17  0.000  0.000  0.001  0.001
   18  0.000  0.008  0.000  0.008
tot    0.009  0.050  0.925  0.983
 
band    27 # energy   -4.16877755 # occ.  2.00000000
 
ion      s      p      d    tot
    1  0.000  0.002  0.036  0.038
    2  0.000  0.003  0.093  0.096
    3  0.000  0.003  0.093  0.096
    4  0.000  0.003  0.093  0.096
    5  0.000  0.004  0.051  0.055
    6  0.000  0.004  0.051  0.055
    7  0.000  0.004  0.051  0.055
    8  0.001  0.007  0.025  0.033
    9  0.000  0.006  0.049  0.055
   10  0.000  0.008  0.023  0.031
   11  0.000  0.006  0.049  0.055
   12  0.000  0.006  0.049  0.055
   13  0.000  0.008  0.028  0.036
   14  0.000  0.003  0.072  0.074
   15  0.000  0.003  0.072  0.074
   16  0.000  0.003  0.072  0.074
   17  0.001  0.001  0.000  0.002
   18  0.000  0.001  0.000  0.001
tot    0.002  0.074  0.906  0.982
 
band    28 # energy   -3.86368465 # occ.  2.00000000
 
ion      s      p      d    tot
    1  0.000  0.002  0.103  0.105
    2  0.000  0.000  0.016  0.017
    3  0.000  0.002  0.090  0.092
    4  0.000  0.002  0.083  0.084
    5  0.000  0.011  0.002  0.014
    6  0.000  0.012  0.001  0.013
    7  0.001  0.010  0.006  0.017
    8  0.000  0.011  0.000  0.012
    9  0.001  0.002  0.006  0.009
   10  0.000  0.000  0.143  0.143
   11  0.000  0.001  0.064  0.065
   12  0.000  0.000  0.071  0.072
   13  0.000  0.002  0.259  0.261
   14  0.001  0.002  0.026  0.029
   15  0.000  0.002  0.010  0.012
   16  0.000  0.002  0.012  0.014
   17  0.000  0.001  0.001  0.002
   18  0.000  0.009  0.000  0.009
tot    0.004  0.070  0.894  0.968
 
band    29 # energy   -3.86367281 # occ.  2.00000000
 
ion      s      p      d    tot
    1  0.000  0.002  0.103  0.105
    2  0.000  0.002  0.110  0.112
    3  0.000  0.001  0.035  0.037
    4  0.000  0.001  0.043  0.045
    5  0.000  0.011  0.004  0.015
    6  0.001  0.010  0.005  0.016
    7  0.000  0.012  0.000  0.012
    8  0.000  0.011  0.000  0.012
    9  0.000  0.000  0.088  0.088
   10  0.000  0.000  0.143  0.143
   11  0.001  0.001  0.030  0.032
   12  0.001  0.001  0.023  0.026
   13  0.000  0.002  0.259  0.261
   14  0.000  0.001  0.006  0.007
   15  0.000  0.002  0.022  0.024
   16  0.000  0.002  0.020  0.022
   17  0.000  0.001  0.001  0.002
   18  0.000  0.009  0.000  0.009
tot    0.004  0.070  0.894  0.968
 
band    30 # energy   -3.62733502 # occ.  2.00000000
 
ion      s      p      d    tot
    1  0.000  0.000  0.006  0.006
    2  0.000  0.000  0.113  0.113
    3  0.000  0.000  0.113  0.113
    4  0.000  0.000  0.113  0.113
    5  0.000  0.005  0.030  0.035
    6  0.000  0.005  0.030  0.035
    7  0.000  0.005  0.030  0.035
    8  0.001  0.009  0.016  0.025
    9  0.000  0.006  0.036  0.043
   10  0.000  0.008  0.005  0.013
   11  0.000  0.006  0.036  0.043
   12  0.000  0.006  0.036  0.043
   13  0.000  0.003  0.023  0.026
   14  0.000  0.000  0.107  0.108
   15  0.000  0.000  0.107  0.108
   16  0.000  0.000  0.107  0.108
   17  0.000  0.001  0.000  0.001
   18  0.000  0.000  0.000  0.000
tot    0.002  0.059  0.909  0.969
 
band    31 # energy   -3.49138020 # occ.  2.00000000
 
ion      s      p      d    tot
    1  0.000  0.000  0.022  0.023
    2  0.000  0.000  0.041  0.042
    3  0.000  0.000  0.041  0.042
    4  0.000  0.000  0.041  0.042
    5  0.000  0.005  0.026  0.031
    6  0.000  0.005  0.026  0.031
    7  0.000  0.005  0.026  0.031
    8  0.000  0.001  0.033  0.034
    9  0.001  0.002  0.170  0.173
   10  0.000  0.001  0.002  0.003
   11  0.001  0.002  0.171  0.174
   12  0.001  0.002  0.170  0.173
   13  0.000  0.015  0.129  0.144
   14  0.000  0.003  0.004  0.007
   15  0.000  0.003  0.004  0.007
   16  0.000  0.003  0.004  0.007
   17  0.002  0.003  0.000  0.005
   18  0.000  0.002  0.000  0.003
tot    0.008  0.054  0.912  0.974
 
band    32 # energy   -3.47997505 # occ.  2.00000000
 
ion      s      p      d    tot
    1  0.000  0.000  0.083  0.083
    2  0.000  0.000  0.034  0.035
    3  0.000  0.000  0.036  0.037
    4  0.000  0.000  0.072  0.072
    5  0.000  0.002  0.062  0.064
    6  0.000  0.001  0.083  0.084
    7  0.000  0.001  0.084  0.085
    8  0.000  0.002  0.114  0.116
    9  0.000  0.001  0.067  0.069
   10  0.000  0.001  0.079  0.081
   11  0.000  0.001  0.017  0.018
   12  0.000  0.001  0.064  0.066
   13  0.000  0.000  0.099  0.099
   14  0.000  0.000  0.025  0.026
   15  0.000  0.000  0.025  0.026
   16  0.000  0.000  0.028  0.028
   17  0.000  0.000  0.000  0.000
   18  0.000  0.000  0.000  0.000
tot    0.001  0.012  0.973  0.986
 
band    33 # energy   -3.47985195 # occ.  2.00000000
 
ion      s      p      d    tot
    1  0.000  0.000  0.083  0.083
    2  0.000  0.000  0.061  0.061
    3  0.000  0.000  0.059  0.059
    4  0.000  0.000  0.023  0.024
    5  0.000  0.001  0.090  0.091
    6  0.000  0.002  0.070  0.071
    7  0.000  0.002  0.069  0.070
    8  0.000  0.002  0.114  0.116
    9  0.000  0.001  0.032  0.033
   10  0.000  0.001  0.079  0.081
   11  0.000  0.001  0.081  0.083
   12  0.000  0.001  0.035  0.036
   13  0.000  0.000  0.099  0.099
   14  0.000  0.000  0.027  0.027
   15  0.000  0.000  0.027  0.027
   16  0.000  0.001  0.024  0.025
   17  0.000  0.000  0.000  0.000
   18  0.000  0.000  0.000  0.000
tot    0.001  0.012  0.973  0.986
 
band    34 # energy   -3.41150656 # occ.  2.00000000
 
ion      s      p      d    tot
    1  0.000  0.002  0.062  0.064
    2  0.000  0.003  0.086  0.088
    3  0.000  0.003  0.086  0.088
    4  0.000  0.003  0.086  0.088
    5  0.001  0.000  0.113  0.115
    6  0.001  0.000  0.113  0.115
    7  0.001  0.000  0.113  0.115
    8  0.001  0.000  0.181  0.183
    9  0.000  0.004  0.008  0.013
   10  0.000  0.005  0.001  0.006
   11  0.000  0.004  0.008  0.013
   12  0.000  0.004  0.008  0.013
   13  0.000  0.002  0.004  0.006
   14  0.000  0.001  0.026  0.027
   15  0.000  0.001  0.026  0.027
   16  0.000  0.001  0.026  0.027
   17  0.000  0.000  0.000  0.001
   18  0.000  0.000  0.000  0.000
tot    0.009  0.035  0.948  0.992
 
band    35 # energy   -3.39501311 # occ.  2.00000000
 
ion      s      p      d    tot
    1  0.001  0.000  0.007  0.008
    2  0.000  0.000  0.021  0.022
    3  0.000  0.000  0.021  0.022
    4  0.000  0.000  0.021  0.022
    5  0.000  0.003  0.100  0.104
    6  0.000  0.003  0.100  0.103
    7  0.000  0.003  0.100  0.103
    8  0.000  0.001  0.016  0.017
    9  0.000  0.002  0.074  0.075
   10  0.001  0.001  0.241  0.242
   11  0.000  0.001  0.074  0.076
   12  0.000  0.002  0.074  0.076
   13  0.000  0.000  0.001  0.001
   14  0.001  0.001  0.038  0.039
   15  0.001  0.001  0.038  0.039
   16  0.001  0.001  0.038  0.039
   17  0.000  0.000  0.000  0.000
   18  0.000  0.000  0.000  0.000
tot    0.006  0.019  0.963  0.989
 
band    36 # energy   -3.38442410 # occ.  2.00000000
 
ion      s      p      d    tot
    1  0.000  0.000  0.016  0.016
    2  0.000  0.001  0.026  0.026
    3  0.000  0.001  0.025  0.026
    4  0.000  0.000  0.025  0.025
    5  0.000  0.001  0.064  0.064
    6  0.000  0.001  0.050  0.051
    7  0.000  0.001  0.050  0.050
    8  0.000  0.000  0.094  0.095
    9  0.001  0.001  0.072  0.074
   10  0.000  0.000  0.004  0.004
   11  0.000  0.000  0.015  0.015
   12  0.001  0.001  0.068  0.070
   13  0.000  0.001  0.152  0.152
   14  0.001  0.001  0.078  0.079
   15  0.001  0.001  0.082  0.084
   16  0.000  0.001  0.159  0.160
   17  0.000  0.000  0.000  0.000
   18  0.000  0.001  0.000  0.001
tot    0.005  0.010  0.978  0.992
 
band    37 # energy   -3.38426035 # occ.  2.00000000
 
ion      s      p      d    tot
    1  0.000  0.000  0.016  0.016
    2  0.000  0.000  0.025  0.025
    3  0.000  0.000  0.025  0.025
    4  0.000  0.001  0.026  0.027
    5  0.000  0.001  0.045  0.046
    6  0.000  0.001  0.059  0.060
    7  0.000  0.001  0.059  0.060
    8  0.000  0.000  0.094  0.095
    9  0.000  0.000  0.032  0.032
   10  0.000  0.000  0.004  0.004
   11  0.002  0.001  0.088  0.091
   12  0.000  0.000  0.035  0.036
   13  0.000  0.001  0.152  0.152
   14  0.000  0.001  0.135  0.136
   15  0.000  0.001  0.130  0.131
   16  0.001  0.000  0.054  0.055
   17  0.000  0.000  0.000  0.000
   18  0.000  0.001  0.000  0.001
tot    0.005  0.010  0.978  0.992
 
band    38 # energy   -3.32888061 # occ.  2.00000000
 
ion      s      p      d    tot
    1  0.000  0.000  0.024  0.024
    2  0.000  0.000  0.009  0.009
    3  0.000  0.000  0.009  0.009
    4  0.000  0.000  0.012  0.012
    5  0.000  0.000  0.107  0.107
    6  0.000  0.001  0.095  0.095
    7  0.000  0.001  0.094  0.095
    8  0.000  0.000  0.089  0.089
    9  0.000  0.000  0.119  0.120
   10  0.000  0.001  0.055  0.056
   11  0.000  0.001  0.118  0.119
   12  0.000  0.000  0.119  0.120
   13  0.000  0.000  0.029  0.029
   14  0.000  0.000  0.025  0.026
   15  0.000  0.000  0.026  0.027
   16  0.000  0.000  0.054  0.054
   17  0.000  0.000  0.000  0.000
   18  0.000  0.000  0.000  0.000
tot    0.001  0.005  0.986  0.992
 
band    39 # energy   -3.32878492 # occ.  2.00000000
 
ion      s      p      d    tot
    1  0.000  0.000  0.024  0.024
    2  0.000  0.000  0.011  0.011
    3  0.000  0.000  0.011  0.011
    4  0.000  0.000  0.008  0.008
    5  0.000  0.001  0.091  0.092
    6  0.000  0.000  0.102  0.103
    7  0.000  0.000  0.103  0.103
    8  0.000  0.000  0.089  0.089
    9  0.000  0.001  0.118  0.119
   10  0.000  0.001  0.055  0.056
   11  0.000  0.000  0.120  0.120
   12  0.000  0.001  0.118  0.119
   13  0.000  0.000  0.029  0.029
   14  0.000  0.000  0.045  0.045
   15  0.000  0.000  0.044  0.044
   16  0.000  0.000  0.017  0.017
   17  0.000  0.000  0.000  0.000
   18  0.000  0.000  0.000  0.000
tot    0.001  0.005  0.986  0.992
 
band    40 # energy   -3.29578135 # occ.  2.00000000
 
ion      s      p      d    tot
    1  0.000  0.000  0.024  0.024
    2  0.000  0.000  0.011  0.011
    3  0.000  0.000  0.009  0.009
    4  0.000  0.000  0.014  0.014
    5  0.000  0.000  0.026  0.026
    6  0.000  0.000  0.115  0.115
    7  0.000  0.000  0.083  0.084
    8  0.000  0.000  0.013  0.013
    9  0.000  0.000  0.133  0.133
   10  0.000  0.000  0.224  0.224
   11  0.000  0.000  0.154  0.154
   12  0.000  0.000  0.122  0.122
   13  0.000  0.000  0.000  0.000
   14  0.000  0.000  0.025  0.025
   15  0.000  0.000  0.036  0.036
   16  0.000  0.000  0.006  0.006
   17  0.000  0.000  0.000  0.000
   18  0.000  0.000  0.000  0.000
tot    0.000  0.001  0.994  0.995
 
band    41 # energy   -3.29575842 # occ.  2.00000000
 
ion      s      p      d    tot
    1  0.000  0.000  0.024  0.024
    2  0.000  0.000  0.012  0.012
    3  0.000  0.000  0.014  0.014
    4  0.000  0.000  0.009  0.009
    5  0.000  0.000  0.123  0.124
    6  0.000  0.000  0.034  0.034
    7  0.000  0.000  0.065  0.066
    8  0.000  0.000  0.012  0.012
    9  0.000  0.000  0.140  0.140
   10  0.000  0.000  0.224  0.224