<?xml version="1.0" encoding="ISO-8859-1"?>
<modeling>
 <generator>
  <i name="program" type="string">vasp </i>
  <i name="version" type="string">5.4.4.18Apr17-6-g9f103f2a35  </i>
  <i name="subversion" type="string">(build Aug 07 2018 15:16:41) complex            parallel </i>
  <i name="platform" type="string">LinuxIFC </i>
  <i name="date" type="string">2019 10 18 </i>
  <i name="time" type="string">01:18:26 </i>
 </generator>
 <incar>
  <i type="string" name="PREC">normal</i>
  <i type="int" name="IBRION">     2</i>
  <i name="EDIFFG">     -0.03000000</i>
  <i type="int" name="NSW">     0</i>
  <i type="int" name="ISIF">     0</i>
  <i type="int" name="ISYM">     0</i>
  <i name="ENCUT">    350.00000000</i>
  <v name="RWIGS">      1.50000000      0.80000000      0.80000000</v>
  <i type="string" name="LREAL"> Auto</i>
  <i type="logical" name="LWAVE"> F  </i>
  <i type="logical" name="LCHARG"> F  </i>
  <i type="int" name="LORBIT">     0</i>
  <v type="int" name="KPOINT_BSE">    -1     0     0     0</v>
  <i type="string" name="GGA"> RP</i>
 </incar>
 <structure name="primitive_cell" >
  <crystal>
   <varray name="basis" >
    <v>       5.19996363       0.00000000       0.00000000 </v>
    <v>       2.59998182       4.50330060       0.00000000 </v>
    <v>       0.00000000       0.00000000      26.36862879 </v>
   </varray>
   <i name="volume">    617.47416323 </i>
   <varray name="rec_basis" >
    <v>       0.19230904      -0.11102967       0.00000000 </v>
    <v>       0.00000000       0.22205935       0.00000000 </v>
    <v>       0.00000000       0.00000000       0.03792385 </v>
   </varray>
  </crystal>
  <varray name="positions" >
   <v>       0.00000000       0.00000000       0.37923853 </v>
   <v>       0.16666667       0.16666667       0.45974618 </v>
   <v>       0.00000000      -0.50000000       0.37923853 </v>
   <v>      -0.50000000      -0.50000000       0.37923853 </v>
   <v>      -0.50000000       0.00000000       0.37923853 </v>
   <v>       0.16666667      -0.33333333       0.45974618 </v>
   <v>      -0.33333333       0.16666667       0.45974618 </v>
   <v>      -0.33333333      -0.33333333       0.45974618 </v>
   <v>      -0.16503017       0.33008483      -0.46082142 </v>
   <v>       0.33008483      -0.16503016      -0.46082142 </v>
   <v>      -0.16505329      -0.16505328      -0.46081791 </v>
   <v>       0.33333188       0.33333188      -0.46166073 </v>
   <v>       0.00000205       0.00000203      -0.37751394 </v>
   <v>       0.49946046       0.49946044      -0.38343732 </v>
   <v>       0.00107832       0.49946044      -0.38342489 </v>
   <v>       0.49946045       0.00107830      -0.38342489 </v>
   <v>      -0.00000027      -0.00000026      -0.30668855 </v>
   <v>      -0.00000146      -0.00000144      -0.26261012 </v>
  </varray>
 </structure>
 <varray name="primitive_index" >
  <v type="int" >        1 </v>
  <v type="int" >        5 </v>
  <v type="int" >        3 </v>
  <v type="int" >        4 </v>
  <v type="int" >        2 </v>
  <v type="int" >        7 </v>
  <v type="int" >        6 </v>
  <v type="int" >        8 </v>
  <v type="int" >        9 </v>
  <v type="int" >       12 </v>
  <v type="int" >       11 </v>
  <v type="int" >       10 </v>
  <v type="int" >       13 </v>
  <v type="int" >       16 </v>
  <v type="int" >       15 </v>
  <v type="int" >       14 </v>
  <v type="int" >       17 </v>
  <v type="int" >       18 </v>
 </varray>
 <kpoints>
  <generation param="Monkhorst-Pack">
   <v type="int" name="divisions">       5        5        1 </v>
   <v name="usershift">      0.00000000       0.00000000       0.00000000 </v>
   <v name="genvec1">      0.20000000       0.00000000       0.00000000 </v>
   <v name="genvec2">      0.00000000       0.20000000       0.00000000 </v>
   <v name="genvec3">      0.00000000       0.00000000       1.00000000 </v>
   <v name="shift">      0.00000000       0.00000000       0.00000000 </v>
  </generation>
  <varray name="kpointlist" >
   <v>       0.00000000       0.00000000       0.00000000 </v>
   <v>       0.20000000      -0.00000000       0.00000000 </v>
   <v>       0.40000000      -0.00000000       0.00000000 </v>
   <v>       0.00000000       0.20000000       0.00000000 </v>
   <v>       0.20000000       0.20000000       0.00000000 </v>
   <v>       0.40000000       0.20000000       0.00000000 </v>
   <v>      -0.40000000       0.20000000       0.00000000 </v>
   <v>      -0.20000000       0.20000000       0.00000000 </v>
   <v>       0.00000000       0.40000000       0.00000000 </v>
   <v>       0.20000000       0.40000000       0.00000000 </v>
   <v>       0.40000000       0.40000000       0.00000000 </v>
   <v>      -0.40000000       0.40000000       0.00000000 </v>
   <v>      -0.20000000       0.40000000       0.00000000 </v>
  </varray>
  <varray name="weights" >
   <v>       0.04000000 </v>
   <v>       0.08000000 </v>
   <v>       0.08000000 </v>
   <v>       0.08000000 </v>
   <v>       0.08000000 </v>
   <v>       0.08000000 </v>
   <v>       0.08000000 </v>
   <v>       0.08000000 </v>
   <v>       0.08000000 </v>
   <v>       0.08000000 </v>
   <v>       0.08000000 </v>
   <v>       0.08000000 </v>
   <v>       0.08000000 </v>
  </varray>
 </kpoints>
 <parameters>
  <separator name="general" >
   <i type="string" name="SYSTEM">unknown system</i>
   <i type="logical" name="LCOMPAT"> F  </i>
  </separator>
  <separator name="electronic" >
   <i type="string" name="PREC">normal</i>
   <i name="ENMAX">    350.00000000</i>
   <i name="ENAUG">    644.87300000</i>
   <i name="EDIFF">      0.00010000</i>
   <i type="int" name="IALGO">    38</i>
   <i type="int" name="IWAVPR">    10</i>
   <i type="int" name="NBANDS">   112</i>
   <i name="NELECT">    186.00000000</i>
   <i type="int" name="TURBO">     0</i>
   <i type="int" name="IRESTART">     0</i>
   <i type="int" name="NREBOOT">     0</i>
   <i type="int" name="NMIN">     0</i>
   <i name="EREF">      0.00000000</i>
   <separator name="electronic smearing" >
    <i type="int" name="ISMEAR">     1</i>
    <i name="SIGMA">      0.20000000</i>
    <i name="KSPACING">      0.50000000</i>
    <i type="logical" name="KGAMMA"> T  </i>
   </separator>
   <separator name="electronic projectors" >
    <i type="logical" name="LREAL"> T  </i>
    <v name="ROPT">     -0.00050000     -0.00050000     -0.00050000</v>
    <i type="int" name="LMAXPAW">  -100</i>
    <i type="int" name="LMAXMIX">     2</i>
    <i type="logical" name="NLSPLINE"> F  </i>
   </separator>
   <separator name="electronic startup" >
    <i type="int" name="ISTART">     0</i>
    <i type="int" name="ICHARG">     2</i>
    <i type="int" name="INIWAV">     1</i>
   </separator>
   <separator name="electronic spin" >
    <i type="int" name="ISPIN">     1</i>
    <i type="logical" name="LNONCOLLINEAR"> F  </i>
    <v name="MAGMOM">      1.00000000      1.00000000      1.00000000      1.00000000      1.00000000      1.00000000      1.00000000      1.00000000      1.00000000      1.00000000      1.00000000      1.00000000      1.00000000      1.00000000      1.00000000      1.00000000      1.00000000      1.00000000</v>
    <i name="NUPDOWN">     -1.00000000</i>
    <i type="logical" name="LSORBIT"> F  </i>
    <v name="SAXIS">      0.00000000      0.00000000      1.00000000</v>
    <i type="logical" name="LSPIRAL"> F  </i>
    <v name="QSPIRAL">      0.00000000      0.00000000      0.00000000</v>
    <i type="logical" name="LZEROZ"> F  </i>
   </separator>
   <separator name="electronic exchange-correlation" >
    <i type="logical" name="LASPH"> F  </i>
    <i type="logical" name="LMETAGGA"> F  </i>
   </separator>
   <separator name="electronic convergence" >
    <i type="int" name="NELM">    60</i>
    <i type="int" name="NELMDL">    -5</i>
    <i type="int" name="NELMIN">     2</i>
    <i name="ENINI">    350.00000000</i>
    <separator name="electronic convergence detail" >
     <i type="logical" name="LDIAG"> T  </i>
     <i type="logical" name="LSUBROT"> F  </i>
     <i name="WEIMIN">      0.00000000</i>
     <i name="EBREAK">      0.00000022</i>
     <i name="DEPER">      0.30000000</i>
     <i type="int" name="NRMM">     4</i>
     <i name="TIME">      0.40000000</i>
    </separator>
   </separator>
   <separator name="electronic mixer" >
    <i name="AMIX">      0.40000000</i>
    <i name="BMIX">      1.00000000</i>
    <i name="AMIN">      0.10000000</i>
    <i name="AMIX_MAG">      1.60000000</i>
    <i name="BMIX_MAG">      1.00000000</i>
    <separator name="electronic mixer details" >
     <i type="int" name="IMIX">     4</i>
     <i type="logical" name="MIXFIRST"> F  </i>
     <i type="int" name="MAXMIX">   -45</i>
     <i name="WC">    100.00000000</i>
     <i type="int" name="INIMIX">     1</i>
     <i type="int" name="MIXPRE">     1</i>
     <i type="int" name="MREMOVE">     5</i>
    </separator>
   </separator>
   <separator name="electronic dipolcorrection" >
    <i type="logical" name="LDIPOL"> F  </i>
    <i type="logical" name="LMONO"> F  </i>
    <i type="int" name="IDIPOL">     0</i>
    <i name="EPSILON">      1.00000000</i>
    <v name="DIPOL">   -100.00000000   -100.00000000   -100.00000000</v>
    <i name="EFIELD">      0.00000000</i>
   </separator>
  </separator>
  <separator name="grids" >
   <i type="int" name="NGX">    24</i>
   <i type="int" name="NGY">    24</i>
   <i type="int" name="NGZ">   126</i>
   <i type="int" name="NGXF">    48</i>
   <i type="int" name="NGYF">    48</i>
   <i type="int" name="NGZF">   252</i>
   <i type="logical" name="ADDGRID"> F  </i>
  </separator>
  <separator name="ionic" >
   <i type="int" name="NSW">     0</i>
   <i type="int" name="IBRION">    -1</i>
   <i type="int" name="MDALGO">     0</i>
   <i type="int" name="ISIF">     0</i>
   <i name="PSTRESS">      0.00000000</i>
   <i name="EDIFFG">     -0.03000000</i>
   <i type="int" name="NFREE">     1</i>
   <i name="POTIM">      0.50000000</i>
   <i name="SMASS">     -3.00000000</i>
   <i name="SCALEE">      1.00000000</i>
  </separator>
  <separator name="ionic md" >
   <i name="TEBEG">      0.00010000</i>
   <i name="TEEND">      0.00010000</i>
   <i type="int" name="NBLOCK">     1</i>
   <i type="int" name="KBLOCK">     1</i>
   <i type="int" name="NPACO">   256</i>
   <i name="APACO">     16.00000000</i>
  </separator>
  <separator name="symmetry" >
   <i type="int" name="ISYM">     0</i>
   <i name="SYMPREC">      0.00001000</i>
  </separator>
  <separator name="dos" >
   <i type="int" name="LORBIT">     0</i>
   <v name="RWIGS">      1.50000000      0.80000000      0.80000000</v>
   <i type="int" name="NEDOS">   301</i>
   <i name="EMIN">     10.00000000</i>
   <i name="EMAX">    -10.00000000</i>
   <i name="EFERMI">      0.00000000</i>
  </separator>
  <separator name="writing" >
   <i type="int" name="NWRITE">     2</i>
   <i type="logical" name="LWAVE"> F  </i>
   <i type="logical" name="LDOWNSAMPLE"> F  </i>
   <i type="logical" name="LCHARG"> F  </i>
   <i type="logical" name="LPARD"> F  </i>
   <i type="logical" name="LVTOT"> F  </i>
   <i type="logical" name="LVHAR"> F  </i>
   <i type="logical" name="LELF"> F  </i>
   <i type="logical" name="LOPTICS"> F  </i>
   <v name="STM">      0.00000000      0.00000000      0.00000000      0.00000000      0.00000000      0.00000000      0.00000000</v>
  </separator>
  <separator name="performance" >
   <i type="int" name="NPAR">     4</i>
   <i type="int" name="NSIM">     4</i>
   <i type="int" name="NBLK">    -1</i>
   <i type="logical" name="LPLANE"> T  </i>
   <i type="logical" name="LSCALAPACK"> T  </i>
   <i type="logical" name="LSCAAWARE"> F  </i>
   <i type="logical" name="LSCALU"> F  </i>
   <i type="logical" name="LASYNC"> F  </i>
   <i type="logical" name="LORBITALREAL"> F  </i>
  </separator>
  <separator name="miscellaneous" >
   <i type="int" name="IDIOT">     3</i>
   <i type="int" name="ISPECIAL">     0</i>
   <i type="logical" name="LMUSIC"> F  </i>
   <v name="POMASS">     63.54600000     12.01100000     16.00000000</v>
   <v name="DARWINR">      0.00000000      0.00000000      0.00000000</v>
   <v name="DARWINV">      1.00000000      1.00000000      1.00000000</v>
   <i type="logical" name="LCORR"> T  </i>
  </separator>
  <i type="logical" name="GGA_COMPAT"> T  </i>
  <i type="logical" name="LBERRY"> F  </i>
  <i type="int" name="ICORELEVEL">     0</i>
  <i type="logical" name="LDAU"> F  </i>
  <i type="int" name="I_CONSTRAINED_M">     0</i>
  <separator name="electronic exchange-correlation" >
   <i type="string" name="GGA">RP</i>
   <i type="int" name="VOSKOWN">     0</i>
   <i type="logical" name="LHFCALC"> F  </i>
   <i type="string" name="PRECFOCK"></i>
   <i type="logical" name="LSYMGRAD"> F  </i>
   <i type="logical" name="LHFONE"> F  </i>
   <i type="logical" name="LRHFCALC"> F  </i>
   <i type="logical" name="LTHOMAS"> F  </i>
   <i type="logical" name="LMODELHF"> F  </i>
   <i name="ENCUT4O">     -1.00000000</i>
   <i type="int" name="EXXOEP">     0</i>
   <i type="int" name="FOURORBIT">     0</i>
   <i name="AEXX">      0.00000000</i>
   <i name="HFALPHA">      0.00000000</i>
   <i name="MCALPHA">      0.00000000</i>
   <i name="ALDAX">      1.00000000</i>
   <i name="AGGAX">      1.00000000</i>
   <i name="ALDAC">      1.00000000</i>
   <i name="AGGAC">      1.00000000</i>
   <i type="int" name="NKREDX">     1</i>
   <i type="int" name="NKREDY">     1</i>
   <i type="int" name="NKREDZ">     1</i>
   <i type="logical" name="SHIFTRED"> F  </i>
   <i type="logical" name="ODDONLY"> F  </i>
   <i type="logical" name="EVENONLY"> F  </i>
   <i type="int" name="LMAXFOCK">     0</i>
   <i type="int" name="NMAXFOCKAE">     0</i>
   <i type="logical" name="LFOCKAEDFT"> F  </i>
   <i name="HFSCREEN">      0.00000000</i>
   <i name="HFSCREENC">      0.00000000</i>
   <i type="int" name="NBANDSGWLOW">     0</i>
  </separator>
  <separator name="vdW DFT" >
   <i type="logical" name="LUSE_VDW"> F  </i>
   <i name="Zab_VDW">     -0.84910000</i>
   <i name="PARAM1">      0.12340000</i>
   <i name="PARAM2">      1.00000000</i>
   <i name="PARAM3">      0.00000000</i>
  </separator>
  <separator name="model GW" >
   <i type="int" name="MODEL_GW">     0</i>
   <i name="MODEL_EPS0">     20.58247211</i>
   <i name="MODEL_ALPHA">      1.00000000</i>
  </separator>
  <separator name="linear response parameters" >
   <i type="logical" name="LEPSILON"> F  </i>
   <i type="logical" name="LRPA"> F  </i>
   <i type="logical" name="LNABLA"> F  </i>
   <i type="logical" name="LVEL"> F  </i>
   <i type="int" name="KINTER">     0</i>
   <i name="CSHIFT">      0.10000000</i>
   <i name="OMEGAMAX">     -1.00000000</i>
   <i name="DEG_THRESHOLD">      0.00200000</i>
   <i name="RTIME">     -0.10000000</i>
   <i name="WPLASMAI">      0.00000000</i>
   <v name="DFIELD">      0.00000000      0.00000000      0.00000000</v>
   <v name="WPLASMA">      0.00000000      0.00000000      0.00000000      0.00000000      0.00000000      0.00000000      0.00000000      0.00000000      0.00000000</v>
  </separator>
  <separator name="orbital magnetization" >
   <i type="logical" name="NUCIND"> F  </i>
   <v name="MAGPOS">      0.00000000      0.00000000      0.00000000</v>
   <i type="logical" name="LNICSALL"> T  </i>
   <i type="logical" name="ORBITALMAG"> F  </i>
   <i type="logical" name="LMAGBLOCH"> F  </i>
   <i type="logical" name="LCHIMAG"> F  </i>
   <i type="logical" name="LGAUGE"> T  </i>
   <i type="int" name="MAGATOM">     0</i>
   <v name="MAGDIPOL">      0.00000000      0.00000000      0.00000000</v>
   <v name="AVECCONST">      0.00000000      0.00000000      0.00000000</v>
  </separator>
  <separator name="response functions" >
   <i type="logical" name="LADDER"> F  </i>
   <i type="logical" name="LRPAFORCE"> F  </i>
   <i type="logical" name="LFXC"> F  </i>
   <i type="logical" name="LHARTREE"> T  </i>
   <i type="int" name="IBSE">     0</i>
   <v type="int" name="KPOINT">    -1     0     0     0</v>
   <i type="logical" name="LTCTE"> F  </i>
   <i type="logical" name="LTETE"> F  </i>
   <i type="logical" name="LTRIPLET"> F  </i>
   <i type="logical" name="LFXCEPS"> F  </i>
   <i type="logical" name="LFXHEG"> F  </i>
   <i type="int" name="NATURALO">     2</i>
   <i type="logical" name="L2ORDER"> F  </i>
   <i type="logical" name="LMP2LT"> F  </i>
   <i type="logical" name="LUSEW"> F  </i>
   <i name="ENCUTGW">     -2.00000000</i>
   <i name="ENCUTGWSOFT">     -2.00000000</i>
   <i name="ENCUTLF">     -1.00000000</i>
   <i type="int" name="LMAXMP2">    -1</i>
   <i name="SCISSOR">      0.00000000</i>
   <i type="int" name="NOMEGA">     0</i>
   <i type="int" name="NOMEGAR">     0</i>
   <i type="int" name="NBANDSGW">    -1</i>
   <i type="int" name="NBANDSO">    -1</i>
   <i type="int" name="NBANDSV">    -1</i>
   <i type="int" name="NELM">     1</i>
   <i type="int" name="NELMHF">     1</i>
   <i type="int" name="DIM">     3</i>
   <i type="int" name="ANTIRES">     0</i>
   <i name="OMEGAMAX">    -30.00000000</i>
   <i name="OMEGAMIN">    -30.00000000</i>
   <i name="OMEGATL">   -200.00000000</i>
   <i type="int" name="OMEGAGRID">   140</i>
   <i name="CSHIFT">     -0.10000000</i>
   <i type="logical" name="SELFENERGY"> F  </i>
   <i type="logical" name="LSPECTRAL"> F  </i>
   <i type="logical" name="LSPECTRALGW"> F  </i>
   <i type="logical" name="LSINGLES"> F  </i>
   <i type="logical" name="LFERMIGW"> F  </i>
   <i type="logical" name="ODDONLYGW"> F  </i>
   <i type="logical" name="EVENONLYGW"> F  </i>
   <i type="int" name="NKREDLFX">     1</i>
   <i type="int" name="NKREDLFY">     1</i>
   <i type="int" name="NKREDLFZ">     1</i>
   <i type="int" name="MAXMEM">  2800</i>
   <i type="int" name="TELESCOPE">     0</i>
   <i type="int" name="TAUPAR">     1</i>
   <i type="int" name="OMEGAPAR">    -1</i>
   <i name="LAMBDA">      1.00000000</i>
  </separator>
  <separator name="External order field" >
   <i name="OFIELD_KAPPA">      0.00000000</i>
   <v name="OFIELD_K">      0.00000000      0.00000000      0.00000000</v>
   <i name="OFIELD_Q6_NEAR">      0.00000000</i>
   <i name="OFIELD_Q6_FAR">      0.00000000</i>
   <i name="OFIELD_A">      0.00000000</i>
  </separator>
 </parameters>
 <atominfo>
  <atoms>      18 </atoms>
  <types>       3 </types>
  <array name="atoms" >
   <dimension dim="1">ion</dimension>
   <field type="string">element</field>
   <field type="int">atomtype</field>
   <set>
    <rc><c>Cu</c><c>   1</c></rc>
    <rc><c>Cu</c><c>   1</c></rc>
    <rc><c>Cu</c><c>   1</c></rc>
    <rc><c>Cu</c><c>   1</c></rc>
    <rc><c>Cu</c><c>   1</c></rc>
    <rc><c>Cu</c><c>   1</c></rc>
    <rc><c>Cu</c><c>   1</c></rc>
    <rc><c>Cu</c><c>   1</c></rc>
    <rc><c>Cu</c><c>   1</c></rc>
    <rc><c>Cu</c><c>   1</c></rc>
    <rc><c>Cu</c><c>   1</c></rc>
    <rc><c>Cu</c><c>   1</c></rc>
    <rc><c>Cu</c><c>   1</c></rc>
    <rc><c>Cu</c><c>   1</c></rc>
    <rc><c>Cu</c><c>   1</c></rc>
    <rc><c>Cu</c><c>   1</c></rc>
    <rc><c>C </c><c>   2</c></rc>
    <rc><c>O </c><c>   3</c></rc>
   </set>
  </array>
  <array name="atomtypes" >
   <dimension dim="1">type</dimension>
   <field type="int">atomspertype</field>
   <field type="string">element</field>
   <field>mass</field>
   <field>valence</field>
   <field type="string">pseudopotential</field>
   <set>
    <rc><c>  16</c><c>Cu</c><c>     63.54600000</c><c>     11.00000000</c><c>  PAW_PBE Cu 22Jun2005                  </c></rc>
    <rc><c>   1</c><c>C </c><c>     12.01100000</c><c>      4.00000000</c><c>  PAW_PBE C 08Apr2002                   </c></rc>
    <rc><c>   1</c><c>O </c><c>     16.00000000</c><c>      6.00000000</c><c>  PAW_PBE O 08Apr2002                   </c></rc>
   </set>
  </array>
 </atominfo>
 <structure name="initialpos" >
  <crystal>
   <varray name="basis" >
    <v>       5.19996363       0.00000000       0.00000000 </v>
    <v>       2.59998182       4.50330060       0.00000000 </v>
    <v>       0.00000000       0.00000000      26.36862879 </v>
   </varray>
   <i name="volume">    617.47416323 </i>
   <varray name="rec_basis" >
    <v>       0.19230904      -0.11102967       0.00000000 </v>
    <v>       0.00000000       0.22205935       0.00000000 </v>
    <v>       0.00000000       0.00000000       0.03792385 </v>
   </varray>
  </crystal>
  <varray name="positions" >
   <v>       0.00000000       0.00000000       0.37923853 </v>
   <v>       0.50000000       0.00000000       0.37923853 </v>
   <v>       0.00000000       0.50000000       0.37923853 </v>
   <v>       0.50000000       0.50000000       0.37923853 </v>
   <v>       0.16666667       0.16666667       0.45974618 </v>
   <v>       0.66666667       0.16666667       0.45974618 </v>
   <v>       0.16666667       0.66666667       0.45974618 </v>
   <v>       0.66666667       0.66666667       0.45974618 </v>
   <v>       0.83496983       0.33008483       0.53917858 </v>
   <v>       0.33333188       0.33333188       0.53833927 </v>
   <v>       0.83494671       0.83494672       0.53918209 </v>
   <v>       0.33008483       0.83496984       0.53917858 </v>
   <v>       0.00000205       0.00000203       0.62248606 </v>
   <v>       0.49946045       0.00107830       0.61657511 </v>
   <v>       0.00107832       0.49946044       0.61657511 </v>
   <v>       0.49946046       0.49946044       0.61656268 </v>
   <v>       0.99999973       0.99999974       0.69331145 </v>
   <v>       0.99999854       0.99999856       0.73738988 </v>
  </varray>
  <varray name="selective"  type="logical" >
   <v type="logical" >  F  F  F </v>
   <v type="logical" >  F  F  F </v>
   <v type="logical" >  F  F  F </v>
   <v type="logical" >  F  F  F </v>
   <v type="logical" >  F  F  F </v>
   <v type="logical" >  F  F  F </v>
   <v type="logical" >  F  F  F </v>
   <v type="logical" >  F  F  F </v>
   <v type="logical" >  T  T  T </v>
   <v type="logical" >  T  T  T </v>
   <v type="logical" >  T  T  T </v>
   <v type="logical" >  T  T  T </v>
   <v type="logical" >  T  T  T </v>
   <v type="logical" >  T  T  T </v>
   <v type="logical" >  T  T  T </v>
   <v type="logical" >  T  T  T </v>
   <v type="logical" >  T  T  T </v>
   <v type="logical" >  T  T  T </v>
  </varray>
  <nose>
   <v>      -3.00000000       0.00000000       0.00010000       0.00010000 </v>
  </nose>
 </structure>
 <calculation>
  <scstep>
   <time name="dav">    2.91    3.08</time>
   <time name="total">    2.94    3.21</time>
   <energy>
    <i name="alphaZ">    333.59272159 </i>
    <i name="ewald"> 109475.29818643 </i>
    <i name="hartreedc">-131238.17202587 </i>
    <i name="XCdc">    757.82751579 </i>
    <i name="pawpsdc">  20119.38880325 </i>
    <i name="pawaedc"> -21798.78739505 </i>
    <i name="eentropy">     -0.01422421 </i>
    <i name="bandstr">   1155.40266433 </i>
    <i name="atom">  22817.67997243 </i>
    <i name="e_fr_energy">   1622.21621869 </i>
    <i name="e_wo_entrp">   1622.23044289 </i>
    <i name="e_0_energy">   1622.22096009 </i>
   </energy>
  </scstep>
  <scstep>
   <time name="dav">    3.16    3.16</time>
   <time name="total">    3.16    3.16</time>
   <energy>
    <i name="e_fr_energy">    156.58583108 </i>
    <i name="e_wo_entrp">    156.58091803 </i>
    <i name="e_0_energy">    156.58419340 </i>
   </energy>
  </scstep>
  <scstep>
   <time name="dav">    3.43    3.43</time>
   <time name="total">    3.43    3.43</time>
   <energy>
    <i name="e_fr_energy">    -50.00515575 </i>
    <i name="e_wo_entrp">    -50.00103347 </i>
    <i name="e_0_energy">    -50.00378166 </i>
   </energy>
  </scstep>
  <scstep>
   <time name="dav">    3.63    3.63</time>
   <time name="total">    3.63    3.63</time>
   <energy>
    <i name="e_fr_energy">    -75.51197546 </i>
    <i name="e_wo_entrp">    -75.48701888 </i>
    <i name="e_0_energy">    -75.50365660 </i>
   </energy>
  </scstep>
  <scstep>
   <time name="dav">    3.90    3.90</time>
   <time name="total">    4.07    4.07</time>
   <energy>
    <i name="e_fr_energy">    -76.71172972 </i>
    <i name="e_wo_entrp">    -76.67894990 </i>
    <i name="e_0_energy">    -76.70080311 </i>
   </energy>
  </scstep>
  <scstep>
   <time name="dav">    3.55    3.56</time>
   <time name="total">    3.73    3.73</time>
   <energy>
    <i name="e_fr_energy">    -71.70962688 </i>
    <i name="e_wo_entrp">    -71.67031795 </i>
    <i name="e_0_energy">    -71.69652391 </i>
   </energy>
  </scstep>
  <scstep>
   <time name="dav">    2.94    2.94</time>
   <time name="total">    3.14    3.14</time>
   <energy>
    <i name="e_fr_energy">    -64.09864428 </i>
    <i name="e_wo_entrp">    -64.09229267 </i>
    <i name="e_0_energy">    -64.09652707 </i>
   </energy>
  </scstep>
  <scstep>
   <time name="dav">    3.90    3.90</time>
   <time name="total">    4.12    4.12</time>
   <energy>
    <i name="e_fr_energy">    -63.99699613 </i>
    <i name="e_wo_entrp">    -64.01727641 </i>
    <i name="e_0_energy">    -64.00375622 </i>
   </energy>
  </scstep>
  <scstep>
   <time name="dav">    3.92    3.92</time>
   <time name="total">    4.14    4.15</time>
   <energy>
    <i name="e_fr_energy">    -63.93477628 </i>
    <i name="e_wo_entrp">    -63.94600235 </i>
    <i name="e_0_energy">    -63.93851830 </i>
   </energy>
  </scstep>
  <scstep>
   <time name="dav">    3.73    3.73</time>
   <time name="total">    3.95    3.95</time>
   <energy>
    <i name="e_fr_energy">    -63.84792657 </i>
    <i name="e_wo_entrp">    -63.86606258 </i>
    <i name="e_0_energy">    -63.85397190 </i>
   </energy>
  </scstep>
  <scstep>
   <time name="dav">    2.97    2.97</time>
   <time name="total">    3.17    3.18</time>
   <energy>
    <i name="e_fr_energy">    -63.79051665 </i>
    <i name="e_wo_entrp">    -63.81226851 </i>
    <i name="e_0_energy">    -63.79776727 </i>
   </energy>
  </scstep>
  <scstep>
   <time name="dav">    3.43    3.43</time>
   <time name="total">    3.63    3.63</time>
   <energy>
    <i name="e_fr_energy">    -63.77941456 </i>
    <i name="e_wo_entrp">    -63.80230096 </i>
    <i name="e_0_energy">    -63.78704336 </i>
   </energy>
  </scstep>
  <scstep>
   <time name="dav">    3.31    3.31</time>
   <time name="total">    3.50    3.50</time>
   <energy>
    <i name="e_fr_energy">    -63.77297876 </i>
    <i name="e_wo_entrp">    -63.79554327 </i>
    <i name="e_0_energy">    -63.78050026 </i>
   </energy>
  </scstep>
  <scstep>
   <time name="dav">    3.17    3.17</time>
   <time name="total">    3.38    3.38</time>
   <energy>
    <i name="e_fr_energy">    -63.77250777 </i>
    <i name="e_wo_entrp">    -63.79611162 </i>
    <i name="e_0_energy">    -63.78037572 </i>
   </energy>
  </scstep>
  <scstep>
   <time name="dav">    3.29    3.29</time>
   <time name="total">    3.49    3.49</time>
   <energy>
    <i name="e_fr_energy">    -63.77120799 </i>
    <i name="e_wo_entrp">    -63.79429433 </i>
    <i name="e_0_energy">    -63.77890344 </i>
   </energy>
  </scstep>
  <scstep>
   <time name="dav">    3.29    3.29</time>
   <time name="total">    3.49    3.49</time>
   <energy>
    <i name="e_fr_energy">    -63.77045480 </i>
    <i name="e_wo_entrp">    -63.79354483 </i>
    <i name="e_0_energy">    -63.77815148 </i>
   </energy>
  </scstep>
  <scstep>
   <time name="dav">    3.12    3.12</time>
   <time name="total">    3.33    3.33</time>
   <energy>
    <i name="e_fr_energy">    -63.77029431 </i>
    <i name="e_wo_entrp">    -63.79335966 </i>
    <i name="e_0_energy">    -63.77798276 </i>
   </energy>
  </scstep>
  <scstep>
   <time name="dav">    3.43    3.43</time>
   <time name="total">    3.65    3.65</time>
   <energy>
    <i name="e_fr_energy">    -63.77056169 </i>
    <i name="e_wo_entrp">    -63.79339527 </i>
    <i name="e_0_energy">    -63.77817289 </i>
   </energy>
  </scstep>
  <scstep>
   <time name="dav">    2.37    2.37</time>
   <time name="total">    2.40    2.40</time>
   <energy>
    <i name="alphaZ">    333.59272159 </i>
    <i name="ewald"> 109475.29818643 </i>
    <i name="hartreedc">-131024.73457363 </i>
    <i name="XCdc">    743.87896942 </i>
    <i name="pawpsdc">  21590.73479117 </i>
    <i name="pawaedc"> -23301.59960320 </i>
    <i name="eentropy">      0.02285550 </i>
    <i name="bandstr">   -698.64395605 </i>
    <i name="atom">  22817.67997243 </i>
    <i name="e_fr_energy">    -63.77063635 </i>
    <i name="e_wo_entrp">    -63.79349184 </i>
    <i name="e_0_energy">    -63.77825484 </i>
   </energy>
  </scstep>
  <structure>
   <crystal>
    <varray name="basis" >
     <v>       5.19996363       0.00000000       0.00000000 </v>
     <v>       2.59998182       4.50330060       0.00000000 </v>
     <v>       0.00000000       0.00000000      26.36862879 </v>
    </varray>
    <i name="volume">    617.47416323 </i>
    <varray name="rec_basis" >
     <v>       0.19230904      -0.11102967       0.00000000 </v>
     <v>       0.00000000       0.22205935       0.00000000 </v>
     <v>       0.00000000       0.00000000       0.03792385 </v>
    </varray>
   </crystal>
   <varray name="positions" >
    <v>       0.00000000       0.00000000       0.37923853 </v>
    <v>       0.50000000       0.00000000       0.37923853 </v>
    <v>       0.00000000       0.50000000       0.37923853 </v>
    <v>       0.50000000       0.50000000       0.37923853 </v>
    <v>       0.16666667       0.16666667       0.45974618 </v>
    <v>       0.66666667       0.16666667       0.45974618 </v>
    <v>       0.16666667       0.66666667       0.45974618 </v>
    <v>       0.66666667       0.66666667       0.45974618 </v>
    <v>       0.83496983       0.33008483       0.53917858 </v>
    <v>       0.33333188       0.33333188       0.53833927 </v>
    <v>       0.83494671       0.83494672       0.53918209 </v>
    <v>       0.33008483       0.83496984       0.53917858 </v>
    <v>       0.00000205       0.00000203       0.62248606 </v>
    <v>       0.49946045       0.00107830       0.61657511 </v>
    <v>       0.00107832       0.49946044       0.61657511 </v>
    <v>       0.49946046       0.49946044       0.61656268 </v>
    <v>       0.99999973       0.99999974       0.69331145 </v>
    <v>       0.99999854       0.99999856       0.73738988 </v>
   </varray>
  </structure>
  <varray name="forces" >
   <v>      -0.00000357      -0.00000843       0.10370483 </v>
   <v>      -0.00000829       0.02395545       0.03442295 </v>
   <v>       0.02073815      -0.01198020       0.03442674 </v>
   <v>      -0.02072012      -0.01196047       0.03461426 </v>
   <v>       0.01304441       0.00749449      -0.08374355 </v>
   <v>      -0.01293810       0.00738046      -0.08344040 </v>
   <v>      -0.00003604      -0.01486741      -0.08342370 </v>
   <v>      -0.00001521       0.00004030       0.03578394 </v>
   <v>      -0.00015386      -0.02035984      -0.00353395 </v>
   <v>       0.00012598       0.00008242      -0.00912173 </v>
   <v>       0.01778629       0.01025664      -0.00354699 </v>
   <v>      -0.01771434       0.01004894      -0.00353674 </v>
   <v>      -0.00000876      -0.00001848      -0.03879958 </v>
   <v>      -0.00007638      -0.00894633      -0.00274980 </v>
   <v>      -0.00778508       0.00439062      -0.00272656 </v>
   <v>       0.00778784       0.00448469      -0.00039894 </v>
   <v>       0.00000470       0.00001591       0.04567449 </v>
   <v>      -0.00002764      -0.00000875       0.02639473 </v>
  </varray>
  <energy>
   <i name="e_fr_energy">    -63.77063635 </i>
   <i name="e_wo_entrp">    -63.77825484 </i>
   <i name="e_0_energy">      0.02285550 </i>
  </energy>
  <time name="totalsc">   67.35   67.68</time>
  <eigenvalues>
   <array>
    <dimension dim="1">band</dimension>
    <dimension dim="2">kpoint</dimension>
    <dimension dim="3">spin</dimension>
    <field>eigene</field>
    <field>occ</field>
    <set>
     <set comment="spin 1">
      <set comment="kpoint 1">
       <r>  -25.1026    1.0000 </r>
       <r>  -10.6250    1.0000 </r>
       <r>   -9.1136    1.0000 </r>
       <r>   -8.2133    1.0000 </r>
       <r>   -7.6829    1.0000 </r>
       <r>   -7.6823    1.0000 </r>
       <r>   -7.4343    1.0000 </r>
       <r>   -6.1502    1.0000 </r>
       <r>   -5.4094    1.0000 </r>
       <r>   -5.1383    1.0000 </r>
       <r>   -5.1382    1.0000 </r>
       <r>   -5.0839    1.0000 </r>
       <r>   -5.0062    1.0000 </r>
       <r>   -5.0061    1.0000 </r>
       <r>   -4.9749    1.0000 </r>
       <r>   -4.7655    1.0000 </r>
       <r>   -4.7654    1.0000 </r>
       <r>   -4.5936    1.0000 </r>
       <r>   -4.5890    1.0000 </r>
       <r>   -4.5890    1.0000 </r>
       <r>   -4.5878    1.0000 </r>
       <r>   -4.5878    1.0000 </r>
       <r>   -4.5606    1.0000 </r>
       <r>   -4.5349    1.0000 </r>
       <r>   -4.3035    1.0000 </r>
       <r>   -4.3034    1.0000 </r>
       <r>   -4.1688    1.0000 </r>
       <r>   -3.8637    1.0000 </r>
       <r>   -3.8637    1.0000 </r>
       <r>   -3.6273    1.0000 </r>
       <r>   -3.4914    1.0000 </r>
       <r>   -3.4800    1.0000 </r>
       <r>   -3.4799    1.0000 </r>
       <r>   -3.4115    1.0000 </r>
       <r>   -3.3950    1.0000 </r>
       <r>   -3.3844    1.0000 </r>
       <r>   -3.3843    1.0000 </r>
       <r>   -3.3289    1.0000 </r>
       <r>   -3.3288    1.0000 </r>
       <r>   -3.2958    1.0000 </r>
       <r>   -3.2958    1.0000 </r>
       <r>   -3.2754    1.0000 </r>
       <r>   -3.2716    1.0000 </r>
       <r>   -3.2714    1.0000 </r>
       <r>   -3.1742    1.0000 </r>
       <r>   -3.1331    1.0000 </r>
       <r>   -3.1329    1.0000 </r>
       <r>   -3.1092    1.0000 </r>
       <r>   -3.1092    1.0000 </r>
       <r>   -3.0422    1.0000 </r>
       <r>   -3.0422    1.0000 </r>
       <r>   -3.0283    1.0000 </r>
       <r>   -2.8484    1.0000 </r>
       <r>   -2.8414    1.0000 </r>
       <r>   -2.8414    1.0000 </r>
       <r>   -2.8378    1.0000 </r>
       <r>   -2.6494    1.0000 </r>
       <r>   -2.6494    1.0000 </r>
       <r>   -2.5694    1.0000 </r>
       <r>   -2.5694    1.0000 </r>
       <r>   -2.4511    1.0000 </r>
       <r>   -2.4510    1.0000 </r>
       <r>   -2.4146    1.0000 </r>
       <r>   -2.3681    1.0000 </r>
       <r>   -2.3329    1.0000 </r>
       <r>   -2.3329    1.0000 </r>
       <r>   -2.2706    1.0000 </r>
       <r>   -2.2705    1.0000 </r>
       <r>   -2.1961    1.0000 </r>
       <r>   -2.1960    1.0000 </r>
       <r>   -2.1576    1.0000 </r>
       <r>   -2.1560    1.0000 </r>
       <r>   -2.1559    1.0000 </r>
       <r>   -2.0988    1.0000 </r>
       <r>   -2.0950    1.0000 </r>
       <r>   -2.0949    1.0000 </r>
       <r>   -2.0729    1.0000 </r>
       <r>   -2.0728    1.0000 </r>
       <r>   -2.0577    1.0000 </r>
       <r>   -2.0576    1.0000 </r>
       <r>   -2.0485    1.0000 </r>
       <r>   -1.9764    1.0000 </r>
       <r>   -1.9727    1.0000 </r>
       <r>   -1.9726    1.0000 </r>
       <r>   -1.9213    1.0000 </r>
       <r>   -1.9124    1.0000 </r>
       <r>   -1.9123    1.0000 </r>
       <r>   -1.8770    1.0000 </r>
       <r>   -1.1987    1.0000 </r>
       <r>   -0.8620    1.0200 </r>
       <r>   -0.8619    1.0200 </r>
       <r>   -0.7343    1.0280 </r>
       <r>   -0.0566   -0.0021 </r>
       <r>   -0.0564   -0.0021 </r>
       <r>    0.2077   -0.0000 </r>
       <r>    0.4436   -0.0000 </r>
       <r>    0.5300   -0.0000 </r>
       <r>    0.5301   -0.0000 </r>
       <r>    0.7504   -0.0000 </r>
       <r>    0.9466   -0.0000 </r>
       <r>    0.9467   -0.0000 </r>
       <r>    1.0199   -0.0000 </r>
       <r>    2.3373   -0.0000 </r>
       <r>    2.3379   -0.0000 </r>
       <r>    3.0348   -0.0000 </r>
       <r>    3.5054   -0.0000 </r>
       <r>    3.6212   -0.0000 </r>
       <r>    3.6212   -0.0000 </r>
       <r>    3.6296   -0.0000 </r>
       <r>    4.2614   -0.0000 </r>
       <r>    4.2617   -0.0000 </r>
       <r>    4.3444   -0.0000 </r>
      </set>
      <set comment="kpoint 2">
       <r>  -25.1034    1.0000 </r>
       <r>  -10.6080    1.0000 </r>
       <r>   -8.8258    1.0000 </r>
       <r>   -8.0628    1.0000 </r>
       <r>   -7.7096    1.0000 </r>
       <r>   -7.6901    1.0000 </r>
       <r>   -7.2665    1.0000 </r>
       <r>   -5.9194    1.0000 </r>
       <r>   -5.4475    1.0000 </r>
       <r>   -5.2100    1.0000 </r>
       <r>   -5.1083    1.0000 </r>
       <r>   -5.0751    1.0000 </r>
       <r>   -5.0321    1.0000 </r>
       <r>   -4.9256    1.0000 </r>
       <r>   -4.8940    1.0000 </r>
       <r>   -4.7719    1.0000 </r>
       <r>   -4.6720    1.0000 </r>
       <r>   -4.5736    1.0000 </r>
       <r>   -4.5130    1.0000 </r>
       <r>   -4.5063    1.0000 </r>
       <r>   -4.4717    1.0000 </r>
       <r>   -4.4569    1.0000 </r>
       <r>   -4.4445    1.0000 </r>
       <r>   -4.4029    1.0000 </r>
       <r>   -4.2312    1.0000 </r>
       <r>   -4.2308    1.0000 </r>
       <r>   -4.1106    1.0000 </r>
       <r>   -3.8775    1.0000 </r>
       <r>   -3.8629    1.0000 </r>
       <r>   -3.6739    1.0000 </r>
       <r>   -3.6047    1.0000 </r>
       <r>   -3.5502    1.0000 </r>
       <r>   -3.5009    1.0000 </r>
       <r>   -3.4687    1.0000 </r>
       <r>   -3.4352    1.0000 </r>
       <r>   -3.4283    1.0000 </r>
       <r>   -3.4032    1.0000 </r>
       <r>   -3.3534    1.0000 </r>
       <r>   -3.3313    1.0000 </r>
       <r>   -3.3093    1.0000 </r>
       <r>   -3.2899    1.0000 </r>
       <r>   -3.2699    1.0000 </r>
       <r>   -3.2489    1.0000 </r>
       <r>   -3.2368    1.0000 </r>
       <r>   -3.2285    1.0000 </r>
       <r>   -3.2148    1.0000 </r>
       <r>   -3.2036    1.0000 </r>
       <r>   -3.1729    1.0000 </r>
       <r>   -3.1629    1.0000 </r>
       <r>   -3.1174    1.0000 </r>
       <r>   -3.1030    1.0000 </r>
       <r>   -3.0323    1.0000 </r>
       <r>   -3.0027    1.0000 </r>
       <r>   -2.9405    1.0000 </r>
       <r>   -2.8684    1.0000 </r>
       <r>   -2.8014    1.0000 </r>
       <r>   -2.6996    1.0000 </r>
       <r>   -2.6936    1.0000 </r>
       <r>   -2.6673    1.0000 </r>
       <r>   -2.6353    1.0000 </r>
       <r>   -2.5876    1.0000 </r>
       <r>   -2.5589    1.0000 </r>
       <r>   -2.5164    1.0000 </r>
       <r>   -2.4995    1.0000 </r>
       <r>   -2.4724    1.0000 </r>
       <r>   -2.4619    1.0000 </r>
       <r>   -2.4353    1.0000 </r>
       <r>   -2.3941    1.0000 </r>
       <r>   -2.3920    1.0000 </r>
       <r>   -2.2885    1.0000 </r>
       <r>   -2.2525    1.0000 </r>
       <r>   -2.2353    1.0000 </r>
       <r>   -2.2294    1.0000 </r>
       <r>   -2.2088    1.0000 </r>
       <r>   -2.2085    1.0000 </r>
       <r>   -2.1825    1.0000 </r>
       <r>   -2.1632    1.0000 </r>
       <r>   -2.1588    1.0000 </r>
       <r>   -2.1418    1.0000 </r>
       <r>   -2.1024    1.0000 </r>
       <r>   -2.0934    1.0000 </r>
       <r>   -2.0845    1.0000 </r>
       <r>   -2.0500    1.0000 </r>
       <r>   -2.0392    1.0000 </r>
       <r>   -2.0388    1.0000 </r>
       <r>   -2.0101    1.0000 </r>
       <r>   -1.9998    1.0000 </r>
       <r>   -1.9561    1.0000 </r>
       <r>   -1.9161    1.0000 </r>
       <r>   -1.4691    1.0000 </r>
       <r>   -0.8090    1.0316 </r>
       <r>   -0.7626    1.0350 </r>
       <r>   -0.6925    0.9951 </r>
       <r>   -0.2624   -0.0340 </r>
       <r>   -0.2237   -0.0266 </r>
       <r>   -0.0818   -0.0035 </r>
       <r>    0.6614   -0.0000 </r>
       <r>    0.6873   -0.0000 </r>
       <r>    1.2387   -0.0000 </r>
       <r>    1.6681   -0.0000 </r>
       <r>    1.8199   -0.0000 </r>
       <r>    2.1390   -0.0000 </r>
       <r>    2.6275   -0.0000 </r>
       <r>    2.8097   -0.0000 </r>
       <r>    3.3596   -0.0000 </r>
       <r>    3.7984   -0.0000 </r>
       <r>    3.9174   -0.0000 </r>
       <r>    3.9252   -0.0000 </r>
       <r>    4.3252   -0.0000 </r>
       <r>    4.6471   -0.0000 </r>
       <r>    4.6973   -0.0000 </r>
       <r>    4.7594   -0.0000 </r>
      </set>
      <set comment="kpoint 3">
       <r>  -25.1035    1.0000 </r>
       <r>  -10.5826    1.0000 </r>
       <r>   -8.1175    1.0000 </r>
       <r>   -7.7563    1.0000 </r>
       <r>   -7.7127    1.0000 </r>
       <r>   -7.7009    1.0000 </r>
       <r>   -6.6736    1.0000 </r>
       <r>   -6.5426    1.0000 </r>
       <r>   -5.6669    1.0000 </r>
       <r>   -5.2947    1.0000 </r>
       <r>   -4.9494    1.0000 </r>
       <r>   -4.9063    1.0000 </r>
       <r>   -4.8079    1.0000 </r>
       <r>   -4.7272    1.0000 </r>
       <r>   -4.7149    1.0000 </r>
       <r>   -4.6571    1.0000 </r>
       <r>   -4.4848    1.0000 </r>
       <r>   -4.4418    1.0000 </r>
       <r>   -4.3948    1.0000 </r>
       <r>   -4.2929    1.0000 </r>
       <r>   -4.2926    1.0000 </r>
       <r>   -4.2377    1.0000 </r>
       <r>   -4.2114    1.0000 </r>
       <r>   -4.1436    1.0000 </r>
       <r>   -4.0720    1.0000 </r>
       <r>   -4.0520    1.0000 </r>
       <r>   -3.9770    1.0000 </r>
       <r>   -3.9152    1.0000 </r>
       <r>   -3.9151    1.0000 </r>
       <r>   -3.8457    1.0000 </r>
       <r>   -3.7895    1.0000 </r>
       <r>   -3.7555    1.0000 </r>
       <r>   -3.6882    1.0000 </r>
       <r>   -3.6784    1.0000 </r>
       <r>   -3.6531    1.0000 </r>
       <r>   -3.6146    1.0000 </r>
       <r>   -3.5685    1.0000 </r>
       <r>   -3.5318    1.0000 </r>
       <r>   -3.4977    1.0000 </r>
       <r>   -3.4636    1.0000 </r>
       <r>   -3.4425    1.0000 </r>
       <r>   -3.3487    1.0000 </r>
       <r>   -3.3163    1.0000 </r>
       <r>   -3.2578    1.0000 </r>
       <r>   -3.2569    1.0000 </r>
       <r>   -3.2225    1.0000 </r>
       <r>   -3.1745    1.0000 </r>
       <r>   -3.1605    1.0000 </r>
       <r>   -3.1470    1.0000 </r>
       <r>   -3.1352    1.0000 </r>
       <r>   -3.0978    1.0000 </r>
       <r>   -3.0849    1.0000 </r>
       <r>   -3.0589    1.0000 </r>
       <r>   -3.0454    1.0000 </r>
       <r>   -3.0243    1.0000 </r>
       <r>   -2.9724    1.0000 </r>
       <r>   -2.9569    1.0000 </r>
       <r>   -2.9255    1.0000 </r>
       <r>   -2.8993    1.0000 </r>
       <r>   -2.8764    1.0000 </r>
       <r>   -2.8112    1.0000 </r>
       <r>   -2.8065    1.0000 </r>
       <r>   -2.7634    1.0000 </r>
       <r>   -2.7247    1.0000 </r>
       <r>   -2.6843    1.0000 </r>
       <r>   -2.6269    1.0000 </r>
       <r>   -2.5754    1.0000 </r>
       <r>   -2.5482    1.0000 </r>
       <r>   -2.5260    1.0000 </r>
       <r>   -2.5032    1.0000 </r>
       <r>   -2.4996    1.0000 </r>
       <r>   -2.4856    1.0000 </r>
       <r>   -2.4548    1.0000 </r>
       <r>   -2.4492    1.0000 </r>
       <r>   -2.4039    1.0000 </r>
       <r>   -2.3901    1.0000 </r>
       <r>   -2.3690    1.0000 </r>
       <r>   -2.3376    1.0000 </r>
       <r>   -2.2850    1.0000 </r>
       <r>   -2.2766    1.0000 </r>
       <r>   -2.2262    1.0000 </r>
       <r>   -2.1688    1.0000 </r>
       <r>   -2.1526    1.0000 </r>
       <r>   -2.1040    1.0000 </r>
       <r>   -2.0949    1.0000 </r>
       <r>   -2.0469    1.0000 </r>
       <r>   -2.0359    1.0000 </r>
       <r>   -2.0097    1.0000 </r>
       <r>   -1.9602    1.0000 </r>
       <r>   -1.6700    1.0000 </r>
       <r>   -1.1180    1.0001 </r>
       <r>   -0.7210    1.0209 </r>
       <r>   -0.7156    1.0172 </r>
       <r>   -0.2700   -0.0348 </r>
       <r>   -0.2152   -0.0247 </r>
       <r>    0.0654   -0.0001 </r>
       <r>    0.8065   -0.0000 </r>
       <r>    0.8538   -0.0000 </r>
       <r>    1.2539   -0.0000 </r>
       <r>    1.9442   -0.0000 </r>
       <r>    2.1565   -0.0000 </r>
       <r>    2.3595   -0.0000 </r>
       <r>    3.3565   -0.0000 </r>
       <r>    3.7842   -0.0000 </r>
       <r>    4.0262   -0.0000 </r>
       <r>    4.3556   -0.0000 </r>
       <r>    4.6836   -0.0000 </r>
       <r>    4.9313    0.0000 </r>
       <r>    4.9601    0.0000 </r>
       <r>    5.5003    0.0000 </r>
       <r>    5.5678    0.0000 </r>
       <r>    5.6753    0.0000 </r>
      </set>
      <set comment="kpoint 4">
       <r>  -25.1034    1.0000 </r>
       <r>  -10.6080    1.0000 </r>
       <r>   -8.8258    1.0000 </r>
       <r>   -8.0628    1.0000 </r>
       <r>   -7.7096    1.0000 </r>
       <r>   -7.6901    1.0000 </r>
       <r>   -7.2665    1.0000 </r>
       <r>   -5.9194    1.0000 </r>
       <r>   -5.4475    1.0000 </r>
       <r>   -5.2100    1.0000 </r>
       <r>   -5.1083    1.0000 </r>
       <r>   -5.0751    1.0000 </r>
       <r>   -5.0321    1.0000 </r>
       <r>   -4.9256    1.0000 </r>
       <r>   -4.8940    1.0000 </r>
       <r>   -4.7719    1.0000 </r>
       <r>   -4.6720    1.0000 </r>
       <r>   -4.5736    1.0000 </r>
       <r>   -4.5130    1.0000 </r>
       <r>   -4.5063    1.0000 </r>
       <r>   -4.4717    1.0000 </r>
       <r>   -4.4569    1.0000 </r>
       <r>   -4.4445    1.0000 </r>
       <r>   -4.4029    1.0000 </r>
       <r>   -4.2312    1.0000 </r>
       <r>   -4.2308    1.0000 </r>
       <r>   -4.1106    1.0000 </r>
       <r>   -3.8775    1.0000 </r>
       <r>   -3.8629    1.0000 </r>
       <r>   -3.6739    1.0000 </r>
       <r>   -3.6047    1.0000 </r>
       <r>   -3.5502    1.0000 </r>
       <r>   -3.5009    1.0000 </r>
       <r>   -3.4687    1.0000 </r>
       <r>   -3.4352    1.0000 </r>
       <r>   -3.4283    1.0000 </r>
       <r>   -3.4032    1.0000 </r>
       <r>   -3.3534    1.0000 </r>
       <r>   -3.3313    1.0000 </r>
       <r>   -3.3093    1.0000 </r>
       <r>   -3.2899    1.0000 </r>
       <r>   -3.2699    1.0000 </r>
       <r>   -3.2489    1.0000 </r>
       <r>   -3.2368    1.0000 </r>
       <r>   -3.2285    1.0000 </r>
       <r>   -3.2148    1.0000 </r>
       <r>   -3.2036    1.0000 </r>
       <r>   -3.1729    1.0000 </r>
       <r>   -3.1629    1.0000 </r>
       <r>   -3.1174    1.0000 </r>
       <r>   -3.1030    1.0000 </r>
       <r>   -3.0323    1.0000 </r>
       <r>   -3.0027    1.0000 </r>
       <r>   -2.9405    1.0000 </r>
       <r>   -2.8684    1.0000 </r>
       <r>   -2.8014    1.0000 </r>
       <r>   -2.6996    1.0000 </r>
       <r>   -2.6936    1.0000 </r>
       <r>   -2.6672    1.0000 </r>
       <r>   -2.6353    1.0000 </r>
       <r>   -2.5876    1.0000 </r>
       <r>   -2.5589    1.0000 </r>
       <r>   -2.5164    1.0000 </r>
       <r>   -2.4995    1.0000 </r>
       <r>   -2.4724    1.0000 </r>
       <r>   -2.4619    1.0000 </r>
       <r>   -2.4353    1.0000 </r>
       <r>   -2.3940    1.0000 </r>
       <r>   -2.3920    1.0000 </r>
       <r>   -2.2886    1.0000 </r>
       <r>   -2.2525    1.0000 </r>
       <r>   -2.2353    1.0000 </r>
       <r>   -2.2294    1.0000 </r>
       <r>   -2.2087    1.0000 </r>
       <r>   -2.2085    1.0000 </r>
       <r>   -2.1825    1.0000 </r>
       <r>   -2.1632    1.0000 </r>
       <r>   -2.1588    1.0000 </r>
       <r>   -2.1418    1.0000 </r>
       <r>   -2.1024    1.0000 </r>
       <r>   -2.0934    1.0000 </r>
       <r>   -2.0845    1.0000 </r>
       <r>   -2.0500    1.0000 </r>
       <r>   -2.0391    1.0000 </r>
       <r>   -2.0388    1.0000 </r>
       <r>   -2.0101    1.0000 </r>
       <r>   -1.9998    1.0000 </r>
       <r>   -1.9561    1.0000 </r>
       <r>   -1.9161    1.0000 </r>
       <r>   -1.4691    1.0000 </r>
       <r>   -0.8090    1.0316 </r>
       <r>   -0.7626    1.0350 </r>
       <r>   -0.6925    0.9951 </r>
       <r>   -0.2624   -0.0340 </r>
       <r>   -0.2237   -0.0266 </r>
       <r>   -0.0818   -0.0035 </r>
       <r>    0.6614   -0.0000 </r>
       <r>    0.6873   -0.0000 </r>
       <r>    1.2387   -0.0000 </r>
       <r>    1.6681   -0.0000 </r>
       <r>    1.8199   -0.0000 </r>
       <r>    2.1390   -0.0000 </r>
       <r>    2.6275   -0.0000 </r>
       <r>    2.8097   -0.0000 </r>
       <r>    3.3596   -0.0000 </r>
       <r>    3.7984   -0.0000 </r>
       <r>    3.9174   -0.0000 </r>
       <r>    3.9252   -0.0000 </r>
       <r>    4.3252   -0.0000 </r>
       <r>    4.6471   -0.0000 </r>
       <r>    4.6973   -0.0000 </r>
       <r>    4.7594   -0.0000 </r>
      </set>
      <set comment="kpoint 5">
       <r>  -25.1033    1.0000 </r>
       <r>  -10.6080    1.0000 </r>
       <r>   -8.8258    1.0000 </r>
       <r>   -8.0628    1.0000 </r>
       <r>   -7.7102    1.0000 </r>
       <r>   -7.6897    1.0000 </r>
       <r>   -7.2665    1.0000 </r>
       <r>   -5.9194    1.0000 </r>
       <r>   -5.4475    1.0000 </r>
       <r>   -5.2100    1.0000 </r>
       <r>   -5.1083    1.0000 </r>
       <r>   -5.0751    1.0000 </r>
       <r>   -5.0320    1.0000 </r>
       <r>   -4.9256    1.0000 </r>
       <r>   -4.8940    1.0000 </r>
       <r>   -4.7719    1.0000 </r>
       <r>   -4.6721    1.0000 </r>
       <r>   -4.5736    1.0000 </r>
       <r>   -4.5130    1.0000 </r>
       <r>   -4.5063    1.0000 </r>
       <r>   -4.4717    1.0000 </r>
       <r>   -4.4569    1.0000 </r>
       <r>   -4.4445    1.0000 </r>
       <r>   -4.4029    1.0000 </r>
       <r>   -4.2312    1.0000 </r>
       <r>   -4.2308    1.0000 </r>
       <r>   -4.1106    1.0000 </r>
       <r>   -3.8775    1.0000 </r>
       <r>   -3.8629    1.0000 </r>
       <r>   -3.6739    1.0000 </r>
       <r>   -3.6046    1.0000 </r>
       <r>   -3.5502    1.0000 </r>
       <r>   -3.5008    1.0000 </r>
       <r>   -3.4687    1.0000 </r>
       <r>   -3.4352    1.0000 </r>
       <r>   -3.4284    1.0000 </r>
       <r>   -3.4031    1.0000 </r>
       <r>   -3.3533    1.0000 </r>
       <r>   -3.3312    1.0000 </r>
       <r>   -3.3093    1.0000 </r>
       <r>   -3.2900    1.0000 </r>
       <r>   -3.2699    1.0000 </r>
       <r>   -3.2489    1.0000 </r>
       <r>   -3.2368    1.0000 </r>
       <r>   -3.2285    1.0000 </r>
       <r>   -3.2149    1.0000 </r>
       <r>   -3.2036    1.0000 </r>
       <r>   -3.1729    1.0000 </r>
       <r>   -3.1629    1.0000 </r>
       <r>   -3.1174    1.0000 </r>
       <r>   -3.1030    1.0000 </r>
       <r>   -3.0324    1.0000 </r>
       <r>   -3.0027    1.0000 </r>
       <r>   -2.9405    1.0000 </r>
       <r>   -2.8684    1.0000 </r>
       <r>   -2.8014    1.0000 </r>
       <r>   -2.6997    1.0000 </r>
       <r>   -2.6936    1.0000 </r>
       <r>   -2.6672    1.0000 </r>
       <r>   -2.6352    1.0000 </r>
       <r>   -2.5876    1.0000 </r>
       <r>   -2.5590    1.0000 </r>
       <r>   -2.5164    1.0000 </r>
       <r>   -2.4996    1.0000 </r>
       <r>   -2.4723    1.0000 </r>
       <r>   -2.4619    1.0000 </r>
       <r>   -2.4353    1.0000 </r>
       <r>   -2.3941    1.0000 </r>
       <r>   -2.3920    1.0000 </r>
       <r>   -2.2886    1.0000 </r>
       <r>   -2.2525    1.0000 </r>
       <r>   -2.2353    1.0000 </r>
       <r>   -2.2294    1.0000 </r>
       <r>   -2.2087    1.0000 </r>
       <r>   -2.2085    1.0000 </r>
       <r>   -2.1825    1.0000 </r>
       <r>   -2.1632    1.0000 </r>
       <r>   -2.1589    1.0000 </r>
       <r>   -2.1418    1.0000 </r>
       <r>   -2.1023    1.0000 </r>
       <r>   -2.0935    1.0000 </r>
       <r>   -2.0845    1.0000 </r>
       <r>   -2.0501    1.0000 </r>
       <r>   -2.0392    1.0000 </r>
       <r>   -2.0387    1.0000 </r>
       <r>   -2.0100    1.0000 </r>
       <r>   -1.9998    1.0000 </r>
       <r>   -1.9560    1.0000 </r>
       <r>   -1.9160    1.0000 </r>
       <r>   -1.4691    1.0000 </r>
       <r>   -0.8090    1.0316 </r>
       <r>   -0.7625    1.0350 </r>
       <r>   -0.6924    0.9951 </r>
       <r>   -0.2624   -0.0340 </r>
       <r>   -0.2238   -0.0266 </r>
       <r>   -0.0818   -0.0035 </r>
       <r>    0.6616   -0.0000 </r>
       <r>    0.6872   -0.0000 </r>
       <r>    1.2387   -0.0000 </r>
       <r>    1.6678   -0.0000 </r>
       <r>    1.8200   -0.0000 </r>
       <r>    2.1389   -0.0000 </r>
       <r>    2.6279   -0.0000 </r>
       <r>    2.8094   -0.0000 </r>
       <r>    3.3597   -0.0000 </r>
       <r>    3.7984   -0.0000 </r>
       <r>    3.9174   -0.0000 </r>
       <r>    3.9251   -0.0000 </r>
       <r>    4.3253   -0.0000 </r>
       <r>    4.6473   -0.0000 </r>
       <r>    4.6971   -0.0000 </r>
       <r>    4.7597   -0.0000 </r>
      </set>
      <set comment="kpoint 6">
       <r>  -25.1033    1.0000 </r>
       <r>  -10.5875    1.0000 </r>
       <r>   -8.3033    1.0000 </r>
       <r>   -7.8446    1.0000 </r>
       <r>   -7.7321    1.0000 </r>
       <r>   -7.7055    1.0000 </r>
       <r>   -6.8558    1.0000 </r>
       <r>   -5.7838    1.0000 </r>
       <r>   -5.7604    1.0000 </r>
       <r>   -5.4756    1.0000 </r>
       <r>   -5.1946    1.0000 </r>
       <r>   -5.1306    1.0000 </r>
       <r>   -4.8583    1.0000 </r>
       <r>   -4.6894    1.0000 </r>
       <r>   -4.6747    1.0000 </r>
       <r>   -4.6574    1.0000 </r>
       <r>   -4.6060    1.0000 </r>
       <r>   -4.3830    1.0000 </r>
       <r>   -4.3731    1.0000 </r>
       <r>   -4.3577    1.0000 </r>
       <r>   -4.3281    1.0000 </r>
       <r>   -4.2944    1.0000 </r>
       <r>   -4.2740    1.0000 </r>
       <r>   -4.2100    1.0000 </r>
       <r>   -4.1204    1.0000 </r>
       <r>   -4.0847    1.0000 </r>
       <r>   -4.0049    1.0000 </r>
       <r>   -3.9254    1.0000 </r>
       <r>   -3.8705    1.0000 </r>
       <r>   -3.7733    1.0000 </r>
       <r>   -3.7640    1.0000 </r>
       <r>   -3.7386    1.0000 </r>
       <r>   -3.6565    1.0000 </r>
       <r>   -3.6354    1.0000 </r>
       <r>   -3.5741    1.0000 </r>
       <r>   -3.5480    1.0000 </r>
       <r>   -3.5284    1.0000 </r>
       <r>   -3.4963    1.0000 </r>
       <r>   -3.4791    1.0000 </r>
       <r>   -3.4514    1.0000 </r>
       <r>   -3.3910    1.0000 </r>
       <r>   -3.3254    1.0000 </r>
       <r>   -3.3060    1.0000 </r>
       <r>   -3.2951    1.0000 </r>
       <r>   -3.2538    1.0000 </r>
       <r>   -3.2197    1.0000 </r>
       <r>   -3.2072    1.0000 </r>
       <r>   -3.1681    1.0000 </r>
       <r>   -3.1377    1.0000 </r>
       <r>   -3.1172    1.0000 </r>
       <r>   -3.0731    1.0000 </r>
       <r>   -3.0357    1.0000 </r>
       <r>   -3.0323    1.0000 </r>
       <r>   -2.9879    1.0000 </r>
       <r>   -2.9494    1.0000 </r>
       <r>   -2.9225    1.0000 </r>
       <r>   -2.9045    1.0000 </r>
       <r>   -2.8853    1.0000 </r>
       <r>   -2.8576    1.0000 </r>
       <r>   -2.8372    1.0000 </r>
       <r>   -2.7926    1.0000 </r>
       <r>   -2.7710    1.0000 </r>
       <r>   -2.7506    1.0000 </r>
       <r>   -2.7362    1.0000 </r>
       <r>   -2.7134    1.0000 </r>
       <r>   -2.5875    1.0000 </r>
       <r>   -2.5467    1.0000 </r>
       <r>   -2.5094    1.0000 </r>
       <r>   -2.5018    1.0000 </r>
       <r>   -2.4789    1.0000 </r>
       <r>   -2.4398    1.0000 </r>
       <r>   -2.4056    1.0000 </r>
       <r>   -2.3837    1.0000 </r>
       <r>   -2.3696    1.0000 </r>
       <r>   -2.3430    1.0000 </r>
       <r>   -2.2840    1.0000 </r>
       <r>   -2.2466    1.0000 </r>
       <r>   -2.2178    1.0000 </r>
       <r>   -2.2041    1.0000 </r>
       <r>   -2.1744    1.0000 </r>
       <r>   -2.1581    1.0000 </r>
       <r>   -2.1544    1.0000 </r>
       <r>   -2.1404    1.0000 </r>
       <r>   -2.1050    1.0000 </r>
       <r>   -2.0731    1.0000 </r>
       <r>   -2.0485    1.0000 </r>
       <r>   -2.0224    1.0000 </r>
       <r>   -1.8633    1.0000 </r>
       <r>   -1.8529    1.0000 </r>
       <r>   -1.7751    1.0000 </r>
       <r>   -1.6727    1.0000 </r>
       <r>   -1.5296    1.0000 </r>
       <r>   -0.5976    0.7746 </r>
       <r>   -0.4792    0.2987 </r>
       <r>    0.1076   -0.0000 </r>
       <r>    0.7775   -0.0000 </r>
       <r>    1.0237   -0.0000 </r>
       <r>    1.1100   -0.0000 </r>
       <r>    1.5551   -0.0000 </r>
       <r>    1.9179   -0.0000 </r>
       <r>    2.0798   -0.0000 </r>
       <r>    2.3957   -0.0000 </r>
       <r>    2.7394   -0.0000 </r>
       <r>    2.8743   -0.0000 </r>
       <r>    3.9286   -0.0000 </r>
       <r>    4.1611   -0.0000 </r>
       <r>    4.3886   -0.0000 </r>
       <r>    4.5639   -0.0000 </r>
       <r>    4.8701   -0.0000 </r>
       <r>    5.2120    0.0000 </r>
       <r>    5.2992    0.0000 </r>
       <r>    5.5089    0.0000 </r>
      </set>
      <set comment="kpoint 7">
       <r>  -25.1036    1.0000 </r>
       <r>  -10.5757    1.0000 </r>
       <r>   -7.9551    1.0000 </r>
       <r>   -7.7573    1.0000 </r>
       <r>   -7.7181    1.0000 </r>
       <r>   -7.0845    1.0000 </r>
       <r>   -6.9942    1.0000 </r>
       <r>   -6.0487    1.0000 </r>
       <r>   -5.9565    1.0000 </r>
       <r>   -5.8530    1.0000 </r>
       <r>   -5.1530    1.0000 </r>
       <r>   -4.8558    1.0000 </r>
       <r>   -4.8258    1.0000 </r>
       <r>   -4.5277    1.0000 </r>
       <r>   -4.4712    1.0000 </r>
       <r>   -4.4153    1.0000 </r>
       <r>   -4.4078    1.0000 </r>
       <r>   -4.3553    1.0000 </r>
       <r>   -4.3015    1.0000 </r>
       <r>   -4.2378    1.0000 </r>
       <r>   -4.1901    1.0000 </r>
       <r>   -4.1178    1.0000 </r>
       <r>   -4.0881    1.0000 </r>
       <r>   -4.0585    1.0000 </r>
       <r>   -4.0525    1.0000 </r>
       <r>   -4.0367    1.0000 </r>
       <r>   -4.0191    1.0000 </r>
       <r>   -3.9857    1.0000 </r>
       <r>   -3.9469    1.0000 </r>
       <r>   -3.8724    1.0000 </r>
       <r>   -3.8531    1.0000 </r>
       <r>   -3.8294    1.0000 </r>
       <r>   -3.7967    1.0000 </r>
       <r>   -3.7737    1.0000 </r>
       <r>   -3.7384    1.0000 </r>
       <r>   -3.6934    1.0000 </r>
       <r>   -3.6472    1.0000 </r>
       <r>   -3.5911    1.0000 </r>
       <r>   -3.5684    1.0000 </r>
       <r>   -3.5092    1.0000 </r>
       <r>   -3.4875    1.0000 </r>
       <r>   -3.4409    1.0000 </r>
       <r>   -3.4382    1.0000 </r>
       <r>   -3.4053    1.0000 </r>
       <r>   -3.3876    1.0000 </r>
       <r>   -3.3688    1.0000 </r>
       <r>   -3.3107    1.0000 </r>
       <r>   -3.2926    1.0000 </r>
       <r>   -3.2240    1.0000 </r>
       <r>   -3.2098    1.0000 </r>
       <r>   -3.1695    1.0000 </r>
       <r>   -3.1405    1.0000 </r>
       <r>   -3.0928    1.0000 </r>
       <r>   -3.0816    1.0000 </r>
       <r>   -3.0577    1.0000 </r>
       <r>   -3.0186    1.0000 </r>
       <r>   -2.9675    1.0000 </r>
       <r>   -2.8603    1.0000 </r>
       <r>   -2.8355    1.0000 </r>
       <r>   -2.8069    1.0000 </r>
       <r>   -2.7885    1.0000 </r>
       <r>   -2.7467    1.0000 </r>
       <r>   -2.7190    1.0000 </r>
       <r>   -2.7100    1.0000 </r>
       <r>   -2.6665    1.0000 </r>
       <r>   -2.6414    1.0000 </r>
       <r>   -2.6071    1.0000 </r>
       <r>   -2.5731    1.0000 </r>
       <r>   -2.5577    1.0000 </r>
       <r>   -2.5482    1.0000 </r>
       <r>   -2.4888    1.0000 </r>
       <r>   -2.4624    1.0000 </r>
       <r>   -2.4280    1.0000 </r>
       <r>   -2.4054    1.0000 </r>
       <r>   -2.3922    1.0000 </r>
       <r>   -2.3555    1.0000 </r>
       <r>   -2.3113    1.0000 </r>
       <r>   -2.2966    1.0000 </r>
       <r>   -2.2855    1.0000 </r>
       <r>   -2.2781    1.0000 </r>
       <r>   -2.2539    1.0000 </r>
       <r>   -2.1979    1.0000 </r>
       <r>   -2.1821    1.0000 </r>
       <r>   -2.1554    1.0000 </r>
       <r>   -2.1326    1.0000 </r>
       <r>   -2.1168    1.0000 </r>
       <r>   -2.0996    1.0000 </r>
       <r>   -2.0476    1.0000 </r>
       <r>   -2.0236    1.0000 </r>
       <r>   -1.7744    1.0000 </r>
       <r>   -1.6081    1.0000 </r>
       <r>   -1.4673    1.0000 </r>
       <r>   -1.0994    1.0002 </r>
       <r>   -0.4194    0.1063 </r>
       <r>    0.2409   -0.0000 </r>
       <r>    0.8731   -0.0000 </r>
       <r>    1.1153   -0.0000 </r>
       <r>    1.4120   -0.0000 </r>
       <r>    1.7073   -0.0000 </r>
       <r>    2.0442   -0.0000 </r>
       <r>    2.5086   -0.0000 </r>
       <r>    2.9817   -0.0000 </r>
       <r>    3.2869   -0.0000 </r>
       <r>    3.7214   -0.0000 </r>
       <r>    4.0727   -0.0000 </r>
       <r>    4.1577   -0.0000 </r>
       <r>    4.6770   -0.0000 </r>
       <r>    5.0067    0.0000 </r>
       <r>    5.0899    0.0000 </r>
       <r>    5.2217    0.0000 </r>
       <r>    5.4021    0.0000 </r>
       <r>    5.5780    0.0000 </r>
      </set>
      <set comment="kpoint 8">
       <r>  -25.1033    1.0000 </r>
       <r>  -10.5876    1.0000 </r>
       <r>   -8.3033    1.0000 </r>
       <r>   -7.8446    1.0000 </r>
       <r>   -7.7315    1.0000 </r>
       <r>   -7.7061    1.0000 </r>
       <r>   -6.8558    1.0000 </r>
       <r>   -5.7838    1.0000 </r>
       <r>   -5.7604    1.0000 </r>
       <r>   -5.4756    1.0000 </r>
       <r>   -5.1946    1.0000 </r>
       <r>   -5.1307    1.0000 </r>
       <r>   -4.8583    1.0000 </r>
       <r>   -4.6894    1.0000 </r>
       <r>   -4.6747    1.0000 </r>
       <r>   -4.6574    1.0000 </r>
       <r>   -4.6060    1.0000 </r>
       <r>   -4.3830    1.0000 </r>
       <r>   -4.3731    1.0000 </r>
       <r>   -4.3577    1.0000 </r>
       <r>   -4.3281    1.0000 </r>
       <r>   -4.2944    1.0000 </r>
       <r>   -4.2740    1.0000 </r>
       <r>   -4.2100    1.0000 </r>
       <r>   -4.1204    1.0000 </r>
       <r>   -4.0847    1.0000 </r>
       <r>   -4.0049    1.0000 </r>
       <r>   -3.9253    1.0000 </r>
       <r>   -3.8706    1.0000 </r>
       <r>   -3.7733    1.0000 </r>
       <r>   -3.7641    1.0000 </r>
       <r>   -3.7386    1.0000 </r>
       <r>   -3.6565    1.0000 </r>
       <r>   -3.6354    1.0000 </r>
       <r>   -3.5741    1.0000 </r>
       <r>   -3.5481    1.0000 </r>
       <r>   -3.5284    1.0000 </r>
       <r>   -3.4964    1.0000 </r>
       <r>   -3.4791    1.0000 </r>
       <r>   -3.4514    1.0000 </r>
       <r>   -3.3910    1.0000 </r>
       <r>   -3.3254    1.0000 </r>
       <r>   -3.3060    1.0000 </r>
       <r>   -3.2951    1.0000 </r>
       <r>   -3.2538    1.0000 </r>
       <r>   -3.2197    1.0000 </r>
       <r>   -3.2072    1.0000 </r>
       <r>   -3.1681    1.0000 </r>
       <r>   -3.1377    1.0000 </r>
       <r>   -3.1172    1.0000 </r>
       <r>   -3.0731    1.0000 </r>
       <r>   -3.0357    1.0000 </r>
       <r>   -3.0322    1.0000 </r>
       <r>   -2.9879    1.0000 </r>
       <r>   -2.9493    1.0000 </r>
       <r>   -2.9224    1.0000 </r>
       <r>   -2.9045    1.0000 </r>
       <r>   -2.8852    1.0000 </r>
       <r>   -2.8576    1.0000 </r>
       <r>   -2.8372    1.0000 </r>
       <r>   -2.7926    1.0000 </r>
       <r>   -2.7710    1.0000 </r>
       <r>   -2.7506    1.0000 </r>
       <r>   -2.7362    1.0000 </r>
       <r>   -2.7134    1.0000 </r>
       <r>   -2.5875    1.0000 </r>
       <r>   -2.5467    1.0000 </r>
       <r>   -2.5092    1.0000 </r>
       <r>   -2.5018    1.0000 </r>
       <r>   -2.4788    1.0000 </r>
       <r>   -2.4398    1.0000 </r>
       <r>   -2.4055    1.0000 </r>
       <r>   -2.3837    1.0000 </r>
       <r>   -2.3696    1.0000 </r>
       <r>   -2.3430    1.0000 </r>
       <r>   -2.2840    1.0000 </r>
       <r>   -2.2466    1.0000 </r>
       <r>   -2.2179    1.0000 </r>
       <r>   -2.2042    1.0000 </r>
       <r>   -2.1745    1.0000 </r>
       <r>   -2.1581    1.0000 </r>
       <r>   -2.1544    1.0000 </r>
       <r>   -2.1404    1.0000 </r>
       <r>   -2.1051    1.0000 </r>
       <r>   -2.0732    1.0000 </r>
       <r>   -2.0486    1.0000 </r>
       <r>   -2.0224    1.0000 </r>
       <r>   -1.8634    1.0000 </r>
       <r>   -1.8530    1.0000 </r>
       <r>   -1.7751    1.0000 </r>
       <r>   -1.6728    1.0000 </r>
       <r>   -1.5296    1.0000 </r>
       <r>   -0.5976    0.7743 </r>
       <r>   -0.4793    0.2991 </r>
       <r>    0.1076   -0.0000 </r>
       <r>    0.7772   -0.0000 </r>
       <r>    1.0240   -0.0000 </r>
       <r>    1.1099   -0.0000 </r>
       <r>    1.5550   -0.0000 </r>
       <r>    1.9180   -0.0000 </r>
       <r>    2.0800   -0.0000 </r>
       <r>    2.3957   -0.0000 </r>
       <r>    2.7396   -0.0000 </r>
       <r>    2.8741   -0.0000 </r>
       <r>    3.9285   -0.0000 </r>
       <r>    4.1612   -0.0000 </r>
       <r>    4.3886   -0.0000 </r>
       <r>    4.5635   -0.0000 </r>
       <r>    4.8701   -0.0000 </r>
       <r>    5.2121    0.0000 </r>
       <r>    5.2992    0.0000 </r>
       <r>    5.5089    0.0000 </r>
      </set>
      <set comment="kpoint 9">
       <r>  -25.1035    1.0000 </r>
       <r>  -10.5826    1.0000 </r>
       <r>   -8.1175    1.0000 </r>
       <r>   -7.7563    1.0000 </r>
       <r>   -7.7127    1.0000 </r>
       <r>   -7.7009    1.0000 </r>
       <r>   -6.6736    1.0000 </r>
       <r>   -6.5426    1.0000 </r>
       <r>   -5.6669    1.0000 </r>
       <r>   -5.2947    1.0000 </r>
       <r>   -4.9494    1.0000 </r>
       <r>   -4.9063    1.0000 </r>
       <r>   -4.8079    1.0000 </r>
       <r>   -4.7272    1.0000 </r>
       <r>   -4.7149    1.0000 </r>
       <r>   -4.6571    1.0000 </r>
       <r>   -4.4848    1.0000 </r>
       <r>   -4.4418    1.0000 </r>
       <r>   -4.3948    1.0000 </r>
       <r>   -4.2929    1.0000 </r>
       <r>   -4.2926    1.0000 </r>
       <r>   -4.2377    1.0000 </r>
       <r>   -4.2114    1.0000 </r>
       <r>   -4.1436    1.0000 </r>
       <r>   -4.0720    1.0000 </r>
       <r>   -4.0520    1.0000 </r>
       <r>   -3.9770    1.0000 </r>
       <r>   -3.9152    1.0000 </r>
       <r>   -3.9151    1.0000 </r>
       <r>   -3.8457    1.0000 </r>
       <r>   -3.7895    1.0000 </r>
       <r>   -3.7555    1.0000 </r>
       <r>   -3.6882    1.0000 </r>
       <r>   -3.6783    1.0000 </r>
       <r>   -3.6531    1.0000 </r>
       <r>   -3.6146    1.0000 </r>
       <r>   -3.5685    1.0000 </r>
       <r>   -3.5318    1.0000 </r>
       <r>   -3.4977    1.0000 </r>
       <r>   -3.4636    1.0000 </r>
       <r>   -3.4425    1.0000 </r>
       <r>   -3.3487    1.0000 </r>
       <r>   -3.3163    1.0000 </r>
       <r>   -3.2578    1.0000 </r>
       <r>   -3.2569    1.0000 </r>
       <r>   -3.2225    1.0000 </r>
       <r>   -3.1745    1.0000 </r>
       <r>   -3.1605    1.0000 </r>
       <r>   -3.1470    1.0000 </r>
       <r>   -3.1352    1.0000 </r>
       <r>   -3.0977    1.0000 </r>
       <r>   -3.0849    1.0000 </r>
       <r>   -3.0589    1.0000 </r>
       <r>   -3.0454    1.0000 </r>
       <r>   -3.0242    1.0000 </r>
       <r>   -2.9724    1.0000 </r>
       <r>   -2.9569    1.0000 </r>
       <r>   -2.9255    1.0000 </r>
       <r>   -2.8993    1.0000 </r>
       <r>   -2.8764    1.0000 </r>
       <r>   -2.8111    1.0000 </r>
       <r>   -2.8065    1.0000 </r>
       <r>   -2.7634    1.0000 </r>
       <r>   -2.7247    1.0000 </r>
       <r>   -2.6843    1.0000 </r>
       <r>   -2.6269    1.0000 </r>
       <r>   -2.5754    1.0000 </r>
       <r>   -2.5482    1.0000 </r>
       <r>   -2.5260    1.0000 </r>
       <r>   -2.5033    1.0000 </r>
       <r>   -2.4996    1.0000 </r>
       <r>   -2.4856    1.0000 </r>
       <r>   -2.4548    1.0000 </r>
       <r>   -2.4492    1.0000 </r>
       <r>   -2.4039    1.0000 </r>
       <r>   -2.3901    1.0000 </r>
       <r>   -2.3690    1.0000 </r>
       <r>   -2.3376    1.0000 </r>
       <r>   -2.2850    1.0000 </r>
       <r>   -2.2766    1.0000 </r>
       <r>   -2.2262    1.0000 </r>
       <r>   -2.1688    1.0000 </r>
       <r>   -2.1526    1.0000 </r>
       <r>   -2.1040    1.0000 </r>
       <r>   -2.0949    1.0000 </r>
       <r>   -2.0470    1.0000 </r>
       <r>   -2.0360    1.0000 </r>
       <r>   -2.0097    1.0000 </r>
       <r>   -1.9602    1.0000 </r>
       <r>   -1.6700    1.0000 </r>
       <r>   -1.1180    1.0001 </r>
       <r>   -0.7210    1.0209 </r>
       <r>   -0.7156    1.0172 </r>
       <r>   -0.2700   -0.0348 </r>
       <r>   -0.2152   -0.0246 </r>
       <r>    0.0654   -0.0001 </r>
       <r>    0.8065   -0.0000 </r>
       <r>    0.8538   -0.0000 </r>
       <r>    1.2539   -0.0000 </r>
       <r>    1.9442   -0.0000 </r>
       <r>    2.1565   -0.0000 </r>
       <r>    2.3595   -0.0000 </r>
       <r>    3.3565   -0.0000 </r>
       <r>    3.7842   -0.0000 </r>
       <r>    4.0262   -0.0000 </r>
       <r>    4.3556   -0.0000 </r>
       <r>    4.6836   -0.0000 </r>
       <r>    4.9313    0.0000 </r>
       <r>    4.9601    0.0000 </r>
       <r>    5.5003    0.0000 </r>
       <r>    5.5678    0.0000 </r>
       <r>    5.6754    0.0000 </r>
      </set>
      <set comment="kpoint 10">
       <r>  -25.1033    1.0000 </r>
       <r>  -10.5875    1.0000 </r>
       <r>   -8.3033    1.0000 </r>
       <r>   -7.8446    1.0000 </r>
       <r>   -7.7321    1.0000 </r>
       <r>   -7.7055    1.0000 </r>
       <r>   -6.8558    1.0000 </r>
       <r>   -5.7838    1.0000 </r>
       <r>   -5.7604    1.0000 </r>
       <r>   -5.4756    1.0000 </r>
       <r>   -5.1946    1.0000 </r>
       <r>   -5.1306    1.0000 </r>
       <r>   -4.8583    1.0000 </r>
       <r>   -4.6894    1.0000 </r>
       <r>   -4.6747    1.0000 </r>
       <r>   -4.6574    1.0000 </r>
       <r>   -4.6060    1.0000 </r>
       <r>   -4.3830    1.0000 </r>
       <r>   -4.3731    1.0000 </r>
       <r>   -4.3577    1.0000 </r>
       <r>   -4.3281    1.0000 </r>
       <r>   -4.2944    1.0000 </r>
       <r>   -4.2740    1.0000 </r>
       <r>   -4.2100    1.0000 </r>
       <r>   -4.1204    1.0000 </r>
       <r>   -4.0847    1.0000 </r>
       <r>   -4.0049    1.0000 </r>
       <r>   -3.9254    1.0000 </r>
       <r>   -3.8705    1.0000 </r>
       <r>   -3.7733    1.0000 </r>
       <r>   -3.7640    1.0000 </r>
       <r>   -3.7386    1.0000 </r>
       <r>   -3.6565    1.0000 </r>
       <r>   -3.6354    1.0000 </r>
       <r>   -3.5741    1.0000 </r>
       <r>   -3.5480    1.0000 </r>
       <r>   -3.5284    1.0000 </r>
       <r>   -3.4963    1.0000 </r>
       <r>   -3.4791    1.0000 </r>
       <r>   -3.4514    1.0000 </r>
       <r>   -3.3910    1.0000 </r>
       <r>   -3.3254    1.0000 </r>
       <r>   -3.3060    1.0000 </r>
       <r>   -3.2951    1.0000 </r>
       <r>   -3.2538    1.0000 </r>
       <r>   -3.2197    1.0000 </r>
       <r>   -3.2072    1.0000 </r>
       <r>   -3.1681    1.0000 </r>
       <r>   -3.1377    1.0000 </r>
       <r>   -3.1172    1.0000 </r>
       <r>   -3.0731    1.0000 </r>
       <r>   -3.0357    1.0000 </r>
       <r>   -3.0323    1.0000 </r>
       <r>   -2.9879    1.0000 </r>
       <r>   -2.9494    1.0000 </r>
       <r>   -2.9225    1.0000 </r>
       <r>   -2.9045    1.0000 </r>
       <r>   -2.8853    1.0000 </r>
       <r>   -2.8576    1.0000 </r>
       <r>   -2.8372    1.0000 </r>
       <r>   -2.7926    1.0000 </r>
       <r>   -2.7709    1.0000 </r>
       <r>   -2.7506    1.0000 </r>
       <r>   -2.7362    1.0000 </r>
       <r>   -2.7134    1.0000 </r>
       <r>   -2.5876    1.0000 </r>
       <r>   -2.5467    1.0000 </r>
       <r>   -2.5094    1.0000 </r>
       <r>   -2.5018    1.0000 </r>
       <r>   -2.4789    1.0000 </r>
       <r>   -2.4398    1.0000 </r>
       <r>   -2.4056    1.0000 </r>
       <r>   -2.3837    1.0000 </r>
       <r>   -2.3696    1.0000 </r>
       <r>   -2.3430    1.0000 </r>
       <r>   -2.2840    1.0000 </r>
       <r>   -2.2466    1.0000 </r>
       <r>   -2.2179    1.0000 </r>
       <r>   -2.2041    1.0000 </r>
       <r>   -2.1744    1.0000 </r>
       <r>   -2.1581    1.0000 </r>
       <r>   -2.1544    1.0000 </r>
       <r>   -2.1404    1.0000 </r>
       <r>   -2.1050    1.0000 </r>
       <r>   -2.0731    1.0000 </r>
       <r>   -2.0485    1.0000 </r>
       <r>   -2.0224    1.0000 </r>
       <r>   -1.8633    1.0000 </r>
       <r>   -1.8529    1.0000 </r>
       <r>   -1.7751    1.0000 </r>
       <r>   -1.6727    1.0000 </r>
       <r>   -1.5296    1.0000 </r>
       <r>   -0.5976    0.7746 </r>
       <r>   -0.4792    0.2987 </r>
       <r>    0.1076   -0.0000 </r>
       <r>    0.7775   -0.0000 </r>
       <r>    1.0237   -0.0000 </r>
       <r>    1.1100   -0.0000 </r>
       <r>    1.5551   -0.0000 </r>
       <r>    1.9179   -0.0000 </r>
       <r>    2.0798   -0.0000 </r>
       <r>    2.3957   -0.0000 </r>
       <r>    2.7394   -0.0000 </r>
       <r>    2.8743   -0.0000 </r>
       <r>    3.9286   -0.0000 </r>
       <r>    4.1611   -0.0000 </r>
       <r>    4.3886   -0.0000 </r>
       <r>    4.5639   -0.0000 </r>
       <r>    4.8701   -0.0000 </r>
       <r>    5.2120    0.0000 </r>
       <r>    5.2992    0.0000 </r>
       <r>    5.5089    0.0000 </r>
      </set>
      <set comment="kpoint 11">
       <r>  -25.1035    1.0000 </r>
       <r>  -10.5826    1.0000 </r>
       <r>   -8.1175    1.0000 </r>
       <r>   -7.7569    1.0000 </r>
       <r>   -7.7128    1.0000 </r>
       <r>   -7.7005    1.0000 </r>
       <r>   -6.6736    1.0000 </r>
       <r>   -6.5426    1.0000 </r>
       <r>   -5.6669    1.0000 </r>
       <r>   -5.2947    1.0000 </r>
       <r>   -4.9494    1.0000 </r>
       <r>   -4.9063    1.0000 </r>
       <r>   -4.8078    1.0000 </r>
       <r>   -4.7271    1.0000 </r>
       <r>   -4.7149    1.0000 </r>
       <r>   -4.6571    1.0000 </r>
       <r>   -4.4848    1.0000 </r>
       <r>   -4.4418    1.0000 </r>
       <r>   -4.3947    1.0000 </r>
       <r>   -4.2930    1.0000 </r>
       <r>   -4.2926    1.0000 </r>
       <r>   -4.2377    1.0000 </r>
       <r>   -4.2115    1.0000 </r>
       <r>   -4.1436    1.0000 </r>
       <r>   -4.0720    1.0000 </r>
       <r>   -4.0520    1.0000 </r>
       <r>   -3.9771    1.0000 </r>
       <r>   -3.9153    1.0000 </r>
       <r>   -3.9151    1.0000 </r>
       <r>   -3.8456    1.0000 </r>
       <r>   -3.7894    1.0000 </r>
       <r>   -3.7555    1.0000 </r>
       <r>   -3.6882    1.0000 </r>
       <r>   -3.6783    1.0000 </r>
       <r>   -3.6531    1.0000 </r>
       <r>   -3.6147    1.0000 </r>
       <r>   -3.5684    1.0000 </r>
       <r>   -3.5318    1.0000 </r>
       <r>   -3.4976    1.0000 </r>
       <r>   -3.4635    1.0000 </r>
       <r>   -3.4425    1.0000 </r>
       <r>   -3.3486    1.0000 </r>
       <r>   -3.3162    1.0000 </r>
       <r>   -3.2577    1.0000 </r>
       <r>   -3.2569    1.0000 </r>
       <r>   -3.2225    1.0000 </r>
       <r>   -3.1745    1.0000 </r>
       <r>   -3.1605    1.0000 </r>
       <r>   -3.1470    1.0000 </r>
       <r>   -3.1353    1.0000 </r>
       <r>   -3.0977    1.0000 </r>
       <r>   -3.0850    1.0000 </r>
       <r>   -3.0589    1.0000 </r>
       <r>   -3.0454    1.0000 </r>
       <r>   -3.0242    1.0000 </r>
       <r>   -2.9725    1.0000 </r>
       <r>   -2.9569    1.0000 </r>
       <r>   -2.9257    1.0000 </r>
       <r>   -2.8992    1.0000 </r>
       <r>   -2.8765    1.0000 </r>
       <r>   -2.8112    1.0000 </r>
       <r>   -2.8065    1.0000 </r>
       <r>   -2.7634    1.0000 </r>
       <r>   -2.7247    1.0000 </r>
       <r>   -2.6843    1.0000 </r>
       <r>   -2.6270    1.0000 </r>
       <r>   -2.5754    1.0000 </r>
       <r>   -2.5482    1.0000 </r>
       <r>   -2.5260    1.0000 </r>
       <r>   -2.5033    1.0000 </r>
       <r>   -2.4996    1.0000 </r>
       <r>   -2.4856    1.0000 </r>
       <r>   -2.4548    1.0000 </r>
       <r>   -2.4493    1.0000 </r>
       <r>   -2.4040    1.0000 </r>
       <r>   -2.3901    1.0000 </r>
       <r>   -2.3691    1.0000 </r>
       <r>   -2.3377    1.0000 </r>
       <r>   -2.2850    1.0000 </r>
       <r>   -2.2766    1.0000 </r>
       <r>   -2.2263    1.0000 </r>
       <r>   -2.1688    1.0000 </r>
       <r>   -2.1525    1.0000 </r>
       <r>   -2.1040    1.0000 </r>
       <r>   -2.0948    1.0000 </r>
       <r>   -2.0468    1.0000 </r>
       <r>   -2.0360    1.0000 </r>
       <r>   -2.0095    1.0000 </r>
       <r>   -1.9601    1.0000 </r>
       <r>   -1.6700    1.0000 </r>
       <r>   -1.1179    1.0001 </r>
       <r>   -0.7209    1.0208 </r>
       <r>   -0.7155    1.0171 </r>
       <r>   -0.2699   -0.0348 </r>
       <r>   -0.2152   -0.0246 </r>
       <r>    0.0654   -0.0001 </r>
       <r>    0.8067   -0.0000 </r>
       <r>    0.8537   -0.0000 </r>
       <r>    1.2538   -0.0000 </r>
       <r>    1.9440   -0.0000 </r>
       <r>    2.1567   -0.0000 </r>
       <r>    2.3594   -0.0000 </r>
       <r>    3.3566   -0.0000 </r>
       <r>    3.7844   -0.0000 </r>
       <r>    4.0260   -0.0000 </r>
       <r>    4.3559   -0.0000 </r>
       <r>    4.6836   -0.0000 </r>
       <r>    4.9313    0.0000 </r>
       <r>    4.9601    0.0000 </r>
       <r>    5.5012    0.0000 </r>
       <r>    5.5678    0.0000 </r>
       <r>    5.6741    0.0000 </r>
      </set>
      <set comment="kpoint 12">
       <r>  -25.1036    1.0000 </r>
       <r>  -10.5757    1.0000 </r>
       <r>   -7.9551    1.0000 </r>
       <r>   -7.7579    1.0000 </r>
       <r>   -7.7176    1.0000 </r>
       <r>   -7.0845    1.0000 </r>
       <r>   -6.9942    1.0000 </r>
       <r>   -6.0487    1.0000 </r>
       <r>   -5.9565    1.0000 </r>
       <r>   -5.8529    1.0000 </r>
       <r>   -5.1530    1.0000 </r>
       <r>   -4.8558    1.0000 </r>
       <r>   -4.8259    1.0000 </r>
       <r>   -4.5276    1.0000 </r>
       <r>   -4.4712    1.0000 </r>
       <r>   -4.4153    1.0000 </r>
       <r>   -4.4078    1.0000 </r>
       <r>   -4.3552    1.0000 </r>
       <r>   -4.3015    1.0000 </r>
       <r>   -4.2378    1.0000 </r>
       <r>   -4.1902    1.0000 </r>
       <r>   -4.1178    1.0000 </r>
       <r>   -4.0880    1.0000 </r>
       <r>   -4.0586    1.0000 </r>
       <r>   -4.0525    1.0000 </r>
       <r>   -4.0368    1.0000 </r>
       <r>   -4.0190    1.0000 </r>
       <r>   -3.9857    1.0000 </r>
       <r>   -3.9468    1.0000 </r>
       <r>   -3.8724    1.0000 </r>
       <r>   -3.8531    1.0000 </r>
       <r>   -3.8294    1.0000 </r>
       <r>   -3.7967    1.0000 </r>
       <r>   -3.7737    1.0000 </r>
       <r>   -3.7383    1.0000 </r>
       <r>   -3.6935    1.0000 </r>
       <r>   -3.6472    1.0000 </r>
       <r>   -3.5910    1.0000 </r>
       <r>   -3.5684    1.0000 </r>
       <r>   -3.5092    1.0000 </r>
       <r>   -3.4875    1.0000 </r>
       <r>   -3.4409    1.0000 </r>
       <r>   -3.4382    1.0000 </r>
       <r>   -3.4053    1.0000 </r>
       <r>   -3.3876    1.0000 </r>
       <r>   -3.3688    1.0000 </r>
       <r>   -3.3107    1.0000 </r>
       <r>   -3.2927    1.0000 </r>
       <r>   -3.2241    1.0000 </r>
       <r>   -3.2098    1.0000 </r>
       <r>   -3.1695    1.0000 </r>
       <r>   -3.1405    1.0000 </r>
       <r>   -3.0928    1.0000 </r>
       <r>   -3.0815    1.0000 </r>
       <r>   -3.0577    1.0000 </r>
       <r>   -3.0187    1.0000 </r>
       <r>   -2.9674    1.0000 </r>
       <r>   -2.8604    1.0000 </r>
       <r>   -2.8355    1.0000 </r>
       <r>   -2.8070    1.0000 </r>
       <r>   -2.7886    1.0000 </r>
       <r>   -2.7467    1.0000 </r>
       <r>   -2.7190    1.0000 </r>
       <r>   -2.7100    1.0000 </r>
       <r>   -2.6665    1.0000 </r>
       <r>   -2.6414    1.0000 </r>
       <r>   -2.6071    1.0000 </r>
       <r>   -2.5732    1.0000 </r>
       <r>   -2.5577    1.0000 </r>
       <r>   -2.5482    1.0000 </r>
       <r>   -2.4888    1.0000 </r>
       <r>   -2.4624    1.0000 </r>
       <r>   -2.4280    1.0000 </r>
       <r>   -2.4055    1.0000 </r>
       <r>   -2.3923    1.0000 </r>
       <r>   -2.3556    1.0000 </r>
       <r>   -2.3113    1.0000 </r>
       <r>   -2.2967    1.0000 </r>
       <r>   -2.2856    1.0000 </r>
       <r>   -2.2782    1.0000 </r>
       <r>   -2.2539    1.0000 </r>
       <r>   -2.1979    1.0000 </r>
       <r>   -2.1821    1.0000 </r>
       <r>   -2.1553    1.0000 </r>
       <r>   -2.1326    1.0000 </r>
       <r>   -2.1168    1.0000 </r>
       <r>   -2.0995    1.0000 </r>
       <r>   -2.0475    1.0000 </r>
       <r>   -2.0236    1.0000 </r>
       <r>   -1.7742    1.0000 </r>
       <r>   -1.6081    1.0000 </r>
       <r>   -1.4674    1.0000 </r>
[...]
        <r>  0.0000  0.0005  0.0000 </r>
       </set>
       <set comment="band 91">
        <r>  0.0233  0.0082  0.0653 </r>
        <r>  0.0025  0.0130  0.0907 </r>
        <r>  0.0106  0.0109  0.0762 </r>
        <r>  0.0106  0.0109  0.0762 </r>
        <r>  0.0045  0.0064  0.0297 </r>
        <r>  0.0045  0.0064  0.0297 </r>
        <r>  0.0032  0.0071  0.0436 </r>
        <r>  0.0051  0.0046  0.0319 </r>
        <r>  0.0042  0.0025  0.0311 </r>
        <r>  0.0002  0.0062  0.0274 </r>
        <r>  0.0023  0.0041  0.0243 </r>
        <r>  0.0023  0.0041  0.0243 </r>
        <r>  0.0027  0.0110  0.0204 </r>
        <r>  0.0166  0.0067  0.0375 </r>
        <r>  0.0083  0.0094  0.0552 </r>
        <r>  0.0083  0.0094  0.0552 </r>
        <r>  0.0002  0.0014  0.0002 </r>
        <r>  0.0000  0.0035  0.0000 </r>
       </set>
       <set comment="band 92">
        <r>  0.0013  0.0086  0.0237 </r>
        <r>  0.0007  0.0086  0.0226 </r>
        <r>  0.0270  0.0052  0.0332 </r>
        <r>  0.0269  0.0052  0.0333 </r>
        <r>  0.0012  0.0047  0.0819 </r>
        <r>  0.0012  0.0047  0.0819 </r>
        <r>  0.0071  0.0093  0.0205 </r>
        <r>  0.0076  0.0081  0.0207 </r>
        <r>  0.0077  0.0063  0.0208 </r>
        <r>  0.0077  0.0068  0.0238 </r>
        <r>  0.0037  0.0062  0.0754 </r>
        <r>  0.0037  0.0062  0.0754 </r>
        <r>  0.0000  0.0098  0.0164 </r>
        <r>  0.0000  0.0072  0.0304 </r>
        <r>  0.0226  0.0084  0.0407 </r>
        <r>  0.0226  0.0084  0.0407 </r>
        <r>  0.0000  0.0023  0.0003 </r>
        <r>  0.0000  0.0081  0.0000 </r>
       </set>
       <set comment="band 93">
        <r>  0.0095  0.0119  0.0326 </r>
        <r>  0.0469  0.0077  0.0296 </r>
        <r>  0.0040  0.0105  0.0255 </r>
        <r>  0.0040  0.0105  0.0255 </r>
        <r>  0.0135  0.0081  0.0253 </r>
        <r>  0.0135  0.0081  0.0253 </r>
        <r>  0.0027  0.0053  0.0584 </r>
        <r>  0.0036  0.0118  0.0348 </r>
        <r>  0.0007  0.0085  0.0897 </r>
        <r>  0.0059  0.0080  0.0477 </r>
        <r>  0.0037  0.0154  0.0323 </r>
        <r>  0.0037  0.0154  0.0323 </r>
        <r>  0.0128  0.0156  0.0543 </r>
        <r>  0.0335  0.0035  0.0334 </r>
        <r>  0.0001  0.0110  0.0174 </r>
        <r>  0.0001  0.0110  0.0174 </r>
        <r>  0.0092  0.0077  0.0007 </r>
        <r>  0.0003  0.0049  0.0000 </r>
       </set>
       <set comment="band 94">
        <r>  0.0371  0.0183  0.0234 </r>
        <r>  0.0045  0.0159  0.0196 </r>
        <r>  0.0171  0.0159  0.0219 </r>
        <r>  0.0172  0.0159  0.0219 </r>
        <r>  0.0096  0.0122  0.0285 </r>
        <r>  0.0096  0.0122  0.0285 </r>
        <r>  0.0106  0.0139  0.0220 </r>
        <r>  0.0020  0.0131  0.0301 </r>
        <r>  0.0032  0.0189  0.0211 </r>
        <r>  0.0083  0.0067  0.0412 </r>
        <r>  0.0056  0.0154  0.0294 </r>
        <r>  0.0056  0.0154  0.0294 </r>
        <r>  0.0132  0.0246  0.0279 </r>
        <r>  0.0053  0.0264  0.0103 </r>
        <r>  0.0164  0.0124  0.0315 </r>
        <r>  0.0164  0.0124  0.0315 </r>
        <r>  0.0028  0.0113  0.0008 </r>
        <r>  0.0002  0.0159  0.0002 </r>
       </set>
       <set comment="band 95">
        <r>  0.0001  0.0053  0.0260 </r>
        <r>  0.0001  0.0052  0.0259 </r>
        <r>  0.0182  0.0260  0.0128 </r>
        <r>  0.0181  0.0260  0.0128 </r>
        <r>  0.0068  0.0102  0.0064 </r>
        <r>  0.0068  0.0102  0.0064 </r>
        <r>  0.0272  0.0048  0.0212 </r>
        <r>  0.0262  0.0049  0.0206 </r>
        <r>  0.0195  0.0116  0.0227 </r>
        <r>  0.0188  0.0127  0.0216 </r>
        <r>  0.0063  0.0095  0.0130 </r>
        <r>  0.0063  0.0095  0.0130 </r>
        <r>  0.0000  0.0081  0.0521 </r>
        <r>  0.0000  0.0003  0.0395 </r>
        <r>  0.0031  0.0386  0.0098 </r>
        <r>  0.0031  0.0386  0.0098 </r>
        <r>  0.0000  0.0301  0.0011 </r>
        <r>  0.0000  0.0414  0.0006 </r>
       </set>
       <set comment="band 96">
        <r>  0.0006  0.0077  0.0137 </r>
        <r>  0.0219  0.0290  0.0074 </r>
        <r>  0.0039  0.0110  0.0149 </r>
        <r>  0.0039  0.0110  0.0149 </r>
        <r>  0.0191  0.0077  0.0130 </r>
        <r>  0.0191  0.0077  0.0130 </r>
        <r>  0.0003  0.0180  0.0026 </r>
        <r>  0.0100  0.0136  0.0172 </r>
        <r>  0.0017  0.0106  0.0144 </r>
        <r>  0.0198  0.0114  0.0153 </r>
        <r>  0.0076  0.0154  0.0201 </r>
        <r>  0.0076  0.0154  0.0202 </r>
        <r>  0.0149  0.0192  0.0456 </r>
        <r>  0.0002  0.0296  0.0229 </r>
        <r>  0.0000  0.0182  0.0174 </r>
        <r>  0.0000  0.0182  0.0174 </r>
        <r>  0.0040  0.0700  0.0019 </r>
        <r>  0.0002  0.0614  0.0015 </r>
       </set>
       <set comment="band 97">
        <r>  0.0115  0.0189  0.0023 </r>
        <r>  0.0011  0.0364  0.0133 </r>
        <r>  0.0031  0.0034  0.0197 </r>
        <r>  0.0031  0.0034  0.0197 </r>
        <r>  0.0134  0.0232  0.0213 </r>
        <r>  0.0134  0.0232  0.0213 </r>
        <r>  0.0023  0.0142  0.0231 </r>
        <r>  0.0199  0.0146  0.0175 </r>
        <r>  0.0243  0.0287  0.0147 </r>
        <r>  0.0009  0.0209  0.0318 </r>
        <r>  0.0236  0.0183  0.0286 </r>
        <r>  0.0236  0.0183  0.0286 </r>
        <r>  0.0000  0.0124  0.0378 </r>
        <r>  0.0492  0.0249  0.0129 </r>
        <r>  0.0067  0.0199  0.0194 </r>
        <r>  0.0067  0.0199  0.0194 </r>
        <r>  0.0035  0.0195  0.0006 </r>
        <r>  0.0001  0.0121  0.0004 </r>
       </set>
       <set comment="band 98">
        <r>  0.0001  0.0517  0.0185 </r>
        <r>  0.0102  0.0215  0.0077 </r>
        <r>  0.0117  0.0069  0.0263 </r>
        <r>  0.0117  0.0069  0.0263 </r>
        <r>  0.0093  0.0466  0.0259 </r>
        <r>  0.0093  0.0466  0.0259 </r>
        <r>  0.0271  0.0199  0.0344 </r>
        <r>  0.0137  0.0178  0.0287 </r>
        <r>  0.0002  0.0162  0.0190 </r>
        <r>  0.0090  0.0343  0.0070 </r>
        <r>  0.0142  0.0092  0.0191 </r>
        <r>  0.0142  0.0092  0.0191 </r>
        <r>  0.0078  0.0041  0.0238 </r>
        <r>  0.0080  0.0028  0.0125 </r>
        <r>  0.0005  0.0086  0.0022 </r>
        <r>  0.0005  0.0086  0.0022 </r>
        <r>  0.0025  0.0520  0.0010 </r>
        <r>  0.0001  0.0365  0.0012 </r>
       </set>
       <set comment="band 99">
        <r>  0.0000  0.0010  0.0175 </r>
        <r>  0.0001  0.0009  0.0173 </r>
        <r>  0.0026  0.0350  0.0035 </r>
        <r>  0.0026  0.0349  0.0035 </r>
        <r>  0.0007  0.0063  0.0119 </r>
        <r>  0.0007  0.0063  0.0119 </r>
        <r>  0.0055  0.0225  0.0070 </r>
        <r>  0.0035  0.0181  0.0073 </r>
        <r>  0.0090  0.0076  0.0056 </r>
        <r>  0.0041  0.0108  0.0085 </r>
        <r>  0.0038  0.0068  0.0084 </r>
        <r>  0.0038  0.0068  0.0084 </r>
        <r>  0.0001  0.0014  0.0342 </r>
        <r>  0.0000  0.0142  0.0006 </r>
        <r>  0.0210  0.0026  0.0114 </r>
        <r>  0.0210  0.0026  0.0114 </r>
        <r>  0.0000  0.1631  0.0023 </r>
        <r>  0.0000  0.1034  0.0040 </r>
       </set>
       <set comment="band 100">
        <r>  0.0229  0.0348  0.0217 </r>
        <r>  0.0131  0.0099  0.0325 </r>
        <r>  0.0012  0.0418  0.0168 </r>
        <r>  0.0012  0.0418  0.0168 </r>
        <r>  0.0149  0.0176  0.0156 </r>
        <r>  0.0149  0.0176  0.0156 </r>
        <r>  0.0007  0.0320  0.0147 </r>
        <r>  0.0002  0.0334  0.0171 </r>
        <r>  0.0027  0.0350  0.0149 </r>
        <r>  0.0002  0.0272  0.0088 </r>
        <r>  0.0149  0.0110  0.0148 </r>
        <r>  0.0149  0.0110  0.0148 </r>
        <r>  0.0244  0.0112  0.0229 </r>
        <r>  0.0094  0.0180  0.0237 </r>
        <r>  0.0001  0.0466  0.0131 </r>
        <r>  0.0001  0.0466  0.0131 </r>
        <r>  0.0014  0.0029  0.0004 </r>
        <r>  0.0003  0.0009  0.0001 </r>
       </set>
       <set comment="band 101">
        <r>  0.0006  0.0457  0.0110 </r>
        <r>  0.0007  0.0361  0.0126 </r>
        <r>  0.0124  0.0192  0.0232 </r>
        <r>  0.0124  0.0192  0.0232 </r>
        <r>  0.0017  0.0116  0.0146 </r>
        <r>  0.0017  0.0116  0.0146 </r>
        <r>  0.0064  0.0209  0.0066 </r>
        <r>  0.0067  0.0190  0.0049 </r>
        <r>  0.0156  0.0040  0.0201 </r>
        <r>  0.0142  0.0041  0.0229 </r>
        <r>  0.0009  0.0488  0.0076 </r>
        <r>  0.0009  0.0488  0.0076 </r>
        <r>  0.0001  0.0061  0.0191 </r>
        <r>  0.0007  0.0279  0.0066 </r>
        <r>  0.0292  0.0012  0.0116 </r>
        <r>  0.0292  0.0011  0.0116 </r>
        <r>  0.0005  0.0944  0.0008 </r>
        <r>  0.0001  0.0441  0.0025 </r>
       </set>
       <set comment="band 102">
        <r>  0.0001  0.0003  0.0130 </r>
        <r>  0.0000  0.0004  0.0123 </r>
        <r>  0.0001  0.0377  0.0021 </r>
        <r>  0.0001  0.0377  0.0021 </r>
        <r>  0.0006  0.0113  0.0115 </r>
        <r>  0.0006  0.0113  0.0115 </r>
        <r>  0.0001  0.0265  0.0053 </r>
        <r>  0.0015  0.0284  0.0058 </r>
        <r>  0.0061  0.0378  0.0054 </r>
        <r>  0.0000  0.0300  0.0071 </r>
        <r>  0.0006  0.0108  0.0137 </r>
        <r>  0.0006  0.0108  0.0137 </r>
        <r>  0.0000  0.0040  0.0037 </r>
        <r>  0.0001  0.0086  0.0196 </r>
        <r>  0.0061  0.0578  0.0076 </r>
        <r>  0.0061  0.0578  0.0076 </r>
        <r>  0.0000  0.0984  0.0005 </r>
        <r>  0.0000  0.0228  0.0028 </r>
       </set>
       <set comment="band 103">
        <r>  0.0046  0.0137  0.0172 </r>
        <r>  0.0011  0.0696  0.0091 </r>
        <r>  0.0001  0.0240  0.0147 </r>
        <r>  0.0001  0.0240  0.0147 </r>
        <r>  0.0017  0.0387  0.0057 </r>
        <r>  0.0017  0.0387  0.0057 </r>
        <r>  0.0025  0.0108  0.0206 </r>
        <r>  0.0000  0.0090  0.0153 </r>
        <r>  0.0025  0.0195  0.0161 </r>
        <r>  0.0004  0.0256  0.0140 </r>
        <r>  0.0044  0.0318  0.0119 </r>
        <r>  0.0044  0.0318  0.0119 </r>
        <r>  0.0014  0.0173  0.0250 </r>
        <r>  0.0050  0.0986  0.0044 </r>
        <r>  0.0100  0.0056  0.0202 </r>
        <r>  0.0100  0.0056  0.0202 </r>
        <r>  0.0083  0.0073  0.0003 </r>
        <r>  0.0000  0.0040  0.0001 </r>
       </set>
       <set comment="band 104">
        <r>  0.0010  0.0442  0.0134 </r>
        <r>  0.0002  0.0368  0.0142 </r>
        <r>  0.0000  0.0368  0.0159 </r>
        <r>  0.0000  0.0368  0.0159 </r>
        <r>  0.0047  0.0340  0.0178 </r>
        <r>  0.0047  0.0340  0.0178 </r>
        <r>  0.0086  0.0252  0.0165 </r>
        <r>  0.0020  0.0492  0.0138 </r>
        <r>  0.0001  0.0204  0.0107 </r>
        <r>  0.0015  0.0294  0.0128 </r>
        <r>  0.0037  0.0222  0.0137 </r>
        <r>  0.0037  0.0222  0.0137 </r>
        <r>  0.0025  0.0189  0.0257 </r>
        <r>  0.0081  0.0395  0.0099 </r>
        <r>  0.0000  0.0327  0.0156 </r>
        <r>  0.0000  0.0327  0.0156 </r>
        <r>  0.0056  0.0362  0.0003 </r>
        <r>  0.0002  0.0114  0.0011 </r>
       </set>
       <set comment="band 105">
        <r>  0.0086  0.0219  0.0166 </r>
        <r>  0.0068  0.0224  0.0186 </r>
        <r>  0.0078  0.0214  0.0174 </r>
        <r>  0.0078  0.0214  0.0174 </r>
        <r>  0.0067  0.0555  0.0341 </r>
        <r>  0.0067  0.0555  0.0341 </r>
        <r>  0.0067  0.0545  0.0322 </r>
        <r>  0.0064  0.0607  0.0331 </r>
        <r>  0.0300  0.0240  0.0160 </r>
        <r>  0.0396  0.0183  0.0109 </r>
        <r>  0.0349  0.0188  0.0138 </r>
        <r>  0.0349  0.0188  0.0138 </r>
        <r>  0.0024  0.0101  0.0081 </r>
        <r>  0.0065  0.0085  0.0076 </r>
        <r>  0.0037  0.0115  0.0064 </r>
        <r>  0.0037  0.0115  0.0064 </r>
        <r>  0.0001  0.0044  0.0000 </r>
        <r>  0.0000  0.0016  0.0001 </r>
       </set>
       <set comment="band 106">
        <r>  0.0060  0.0002  0.0049 </r>
        <r>  0.0111  0.0080  0.0019 </r>
        <r>  0.0088  0.0007  0.0021 </r>
        <r>  0.0087  0.0007  0.0021 </r>
        <r>  0.0245  0.0166  0.0135 </r>
        <r>  0.0245  0.0166  0.0135 </r>
        <r>  0.0222  0.0283  0.0106 </r>
        <r>  0.0245  0.0224  0.0103 </r>
        <r>  0.0000  0.0552  0.0344 </r>
        <r>  0.0026  0.0780  0.0305 </r>
        <r>  0.0015  0.0569  0.0365 </r>
        <r>  0.0015  0.0569  0.0365 </r>
        <r>  0.0213  0.0219  0.0151 </r>
        <r>  0.0067  0.0259  0.0231 </r>
        <r>  0.0172  0.0249  0.0179 </r>
        <r>  0.0172  0.0249  0.0179 </r>
        <r>  0.0009  0.0167  0.0003 </r>
        <r>  0.0003  0.0054  0.0006 </r>
       </set>
       <set comment="band 107">
        <r>  0.0003  0.0304  0.0110 </r>
        <r>  0.0053  0.0008  0.0087 </r>
        <r>  0.0018  0.0248  0.0074 </r>
        <r>  0.0018  0.0248  0.0074 </r>
        <r>  0.0035  0.0246  0.0084 </r>
        <r>  0.0035  0.0246  0.0084 </r>
        <r>  0.0034  0.0267  0.0128 </r>
        <r>  0.0002  0.0076  0.0161 </r>
        <r>  0.0054  0.0238  0.0096 </r>
        <r>  0.0000  0.0076  0.0053 </r>
        <r>  0.0054  0.0228  0.0157 </r>
        <r>  0.0054  0.0228  0.0157 </r>
        <r>  0.0033  0.0127  0.0259 </r>
        <r>  0.0150  0.0048  0.0098 </r>
        <r>  0.0100  0.0295  0.0098 </r>
        <r>  0.0100  0.0295  0.0098 </r>
        <r>  0.0067  0.0157  0.0013 </r>
        <r>  0.0029  0.0011  0.0006 </r>
       </set>
       <set comment="band 108">
        <r>  0.0000  0.0055  0.0015 </r>
        <r>  0.0001  0.0003  0.0015 </r>
        <r>  0.0034  0.0051  0.0043 </r>
        <r>  0.0034  0.0051  0.0043 </r>
        <r>  0.0018  0.0031  0.0016 </r>
        <r>  0.0018  0.0031  0.0016 </r>
        <r>  0.0015  0.0023  0.0058 </r>
        <r>  0.0098  0.0017  0.0038 </r>
        <r>  0.0029  0.0010  0.0058 </r>
        <r>  0.0073  0.0033  0.0035 </r>
        <r>  0.0027  0.0029  0.0029 </r>
        <r>  0.0027  0.0029  0.0029 </r>
        <r>  0.0011  0.0122  0.0005 </r>
        <r>  0.0003  0.0008  0.0019 </r>
        <r>  0.0083  0.0021  0.0093 </r>
        <r>  0.0084  0.0021  0.0092 </r>
        <r>  0.0000  0.0012  0.0004 </r>
        <r>  0.0001  0.0235  0.0003 </r>
       </set>
       <set comment="band 109">
        <r>  0.0195  0.0293  0.0071 </r>
        <r>  0.0097  0.0268  0.0120 </r>
        <r>  0.0137  0.0245  0.0100 </r>
        <r>  0.0137  0.0245  0.0100 </r>
        <r>  0.0024  0.0237  0.0211 </r>
        <r>  0.0024  0.0238  0.0211 </r>
        <r>  0.0009  0.0199  0.0208 </r>
        <r>  0.0022  0.0303  0.0181 </r>
        <r>  0.0025  0.0233  0.0186 </r>
        <r>  0.0001  0.0300  0.0197 </r>
        <r>  0.0009  0.0243  0.0186 </r>
        <r>  0.0009  0.0243  0.0186 </r>
        <r>  0.0363  0.0181  0.0083 </r>
        <r>  0.0195  0.0241  0.0140 </r>
        <r>  0.0207  0.0256  0.0101 </r>
        <r>  0.0207  0.0256  0.0101 </r>
        <r>  0.0000  0.0074  0.0007 </r>
        <r>  0.0027  0.0004  0.0003 </r>
       </set>
       <set comment="band 110">
        <r>  0.0043  0.0168  0.0095 </r>
        <r>  0.0142  0.0213  0.0068 </r>
        <r>  0.0051  0.0108  0.0077 </r>
        <r>  0.0052  0.0108  0.0077 </r>
        <r>  0.0013  0.0101  0.0151 </r>
        <r>  0.0013  0.0101  0.0150 </r>
        <r>  0.0022  0.0141  0.0022 </r>
        <r>  0.0061  0.0095  0.0022 </r>
        <r>  0.0080  0.0147  0.0089 </r>
        <r>  0.0032  0.0082  0.0135 </r>
        <r>  0.0160  0.0174  0.0093 </r>
        <r>  0.0160  0.0174  0.0094 </r>
        <r>  0.0030  0.0262  0.0140 </r>
        <r>  0.0010  0.0285  0.0217 </r>
        <r>  0.0040  0.0452  0.0118 </r>
        <r>  0.0040  0.0454  0.0118 </r>
        <r>  0.0013  0.0161  0.0008 </r>
        <r>  0.0050  0.0075  0.0005 </r>
       </set>
       <set comment="band 111">
        <r>  0.0071  0.0448  0.0190 </r>
        <r>  0.0048  0.0407  0.0202 </r>
        <r>  0.0092  0.0325  0.0254 </r>
        <r>  0.0087  0.0327  0.0254 </r>
        <r>  0.0248  0.0006  0.0044 </r>
        <r>  0.0244  0.0007  0.0044 </r>
        <r>  0.0156  0.0047  0.0125 </r>
        <r>  0.0171  0.0055  0.0116 </r>
        <r>  0.0090  0.0064  0.0089 </r>
        <r>  0.0131  0.0049  0.0090 </r>
        <r>  0.0053  0.0022  0.0066 </r>
        <r>  0.0053  0.0022  0.0065 </r>
        <r>  0.0001  0.0151  0.0137 </r>
        <r>  0.0005  0.0156  0.0124 </r>
        <r>  0.0005  0.0292  0.0102 </r>
        <r>  0.0005  0.0296  0.0102 </r>
        <r>  0.0014  0.0054  0.0003 </r>
        <r>  0.0039  0.0025  0.0002 </r>
       </set>
       <set comment="band 112">
        <r>  0.0031  0.0028  0.0030 </r>
        <r>  0.0010  0.0065  0.0030 </r>
        <r>  0.0022  0.0056  0.0048 </r>
        <r>  0.0060  0.0022  0.0054 </r>
        <r>  0.0001  0.0029  0.0023 </r>
        <r>  0.0031  0.0040  0.0019 </r>
        <r>  0.0034  0.0059  0.0018 </r>
        <r>  0.0006  0.0027  0.0033 </r>
        <r>  0.0010  0.0047  0.0015 </r>
        <r>  0.0002  0.0052  0.0014 </r>
        <r>  0.0003  0.0047  0.0013 </r>
        <r>  0.0007  0.0032  0.0018 </r>
        <r>  0.0000  0.0016  0.0011 </r>
        <r>  0.0004  0.0044  0.0022 </r>
        <r>  0.0006  0.0091  0.0014 </r>
        <r>  0.0000  0.0043  0.0006 </r>
        <r>  0.0006  0.0021  0.0001 </r>
        <r>  0.0008  0.0046  0.0000 </r>
       </set>
      </set>
     </set>
    </set>
   </array>
  </projected>
 </calculation>
 <structure name="finalpos" >
  <crystal>
   <varray name="basis" >
    <v>       5.19996363       0.00000000       0.00000000 </v>
    <v>       2.59998182       4.50330060       0.00000000 </v>
    <v>       0.00000000       0.00000000      26.36862879 </v>
   </varray>
   <i name="volume">    617.47416323 </i>
   <varray name="rec_basis" >
    <v>       0.19230904      -0.11102967       0.00000000 </v>
    <v>       0.00000000       0.22205935       0.00000000 </v>
    <v>       0.00000000       0.00000000       0.03792385 </v>
   </varray>
  </crystal>
  <varray name="positions" >
   <v>       0.00000000       0.00000000       0.37923853 </v>
   <v>       0.50000000       0.00000000       0.37923853 </v>
   <v>       0.00000000       0.50000000       0.37923853 </v>
   <v>       0.50000000       0.50000000       0.37923853 </v>
   <v>       0.16666667       0.16666667       0.45974618 </v>
   <v>       0.66666667       0.16666667       0.45974618 </v>
   <v>       0.16666667       0.66666667       0.45974618 </v>
   <v>       0.66666667       0.66666667       0.45974618 </v>
   <v>       0.83496983       0.33008483       0.53917858 </v>
   <v>       0.33333188       0.33333188       0.53833927 </v>
   <v>       0.83494671       0.83494672       0.53918209 </v>
   <v>       0.33008483       0.83496984       0.53917858 </v>
   <v>       0.00000205       0.00000203       0.62248606 </v>
   <v>       0.49946045       0.00107830       0.61657511 </v>
   <v>       0.00107832       0.49946044       0.61657511 </v>
   <v>       0.49946046       0.49946044       0.61656268 </v>
   <v>       0.99999973       0.99999974       0.69331145 </v>
   <v>       0.99999854       0.99999856       0.73738988 </v>
  </varray>
  <varray name="selective"  type="logical" >
   <v type="logical" >  F  F  F </v>
   <v type="logical" >  F  F  F </v>
   <v type="logical" >  F  F  F </v>
   <v type="logical" >  F  F  F </v>
   <v type="logical" >  F  F  F </v>
   <v type="logical" >  F  F  F </v>
   <v type="logical" >  F  F  F </v>
   <v type="logical" >  F  F  F </v>
   <v type="logical" >  T  T  T </v>
   <v type="logical" >  T  T  T </v>
   <v type="logical" >  T  T  T </v>
   <v type="logical" >  T  T  T </v>
   <v type="logical" >  T  T  T </v>
   <v type="logical" >  T  T  T </v>
   <v type="logical" >  T  T  T </v>
   <v type="logical" >  T  T  T </v>
   <v type="logical" >  T  T  T </v>
   <v type="logical" >  T  T  T </v>
  </varray>
  <nose>
   <v>      -3.00000000       0.00000000       0.00010000       0.00010000 </v>
  </nose>
 </structure>
</modeling>
