unknown system                          
           1
     5.199964    0.000000    0.000000
     2.599982    4.503301    0.000000
     0.000000    0.000000   26.368629
   Cu   C    O 
  16   1   1
Direct configuration=     1
   0.00000000  0.00000000  0.37923853
   0.50000000  0.00000000  0.37923853
   0.00000000  0.50000000  0.37923853
   0.50000000  0.50000000  0.37923853
   0.16666667  0.16666667  0.45974618
   0.66666667  0.16666667  0.45974618
   0.16666667  0.66666667  0.45974618
   0.66666667  0.66666667  0.45974618
   0.83496983  0.33008483  0.53917858
   0.33333188  0.33333188  0.53833927
   0.83494671  0.83494672  0.53918209
   0.33008483  0.83496984  0.53917858
   0.00000205  0.00000203  0.62248606
   0.49946045  0.00107830  0.61657511
   0.00107832  0.49946044  0.61657511
   0.49946046  0.49946044  0.61656268
   0.99999973  0.99999974  0.69331145
   0.99999854  0.99999856  0.73738988
