  18  18   1   0
  0.4124378E+02  0.5643844E-09  0.5643844E-09  0.2691227E-08  0.5000000E-15
  1.000000000000000E-004
  CAR 
 unknown system                          
      7.61051331    -25.77192657  301      0.19044973      1.00000000
    -25.772  0.0000E+00  0.0000E+00
    -25.661  0.0000E+00  0.0000E+00
    -25.549  0.0000E+00  0.0000E+00
    -25.438 -0.2864E-28 -0.3186E-29
    -25.327 -0.2090E-24 -0.2326E-25
    -25.216 -0.8174E-21 -0.9098E-22
    -25.104 -0.1711E-17 -0.1904E-18
    -24.993 -0.1914E-14 -0.2131E-15
    -24.882 -0.1106E-11 -0.1233E-12
    -24.770 -0.3492E-09 -0.3897E-10
    -24.659 -0.5835E-07 -0.6531E-08
    -24.548 -0.5128E-05 -0.5772E-06
    -24.437 -0.2345E-03 -0.2667E-04
    -24.325 -0.5463E-02 -0.6345E-03
    -24.214 -0.6194E-01 -0.7527E-02
    -24.103 -0.2991E+00 -0.4080E-01
    -23.992 -0.2214E+00 -0.6544E-01
    -23.880  0.2493E+01  0.2119E+00
    -23.769  0.7248E+01  0.1018E+01
    -23.658  0.7110E+01  0.1810E+01
    -23.546  0.2316E+01  0.2067E+01
    -23.435 -0.2558E+00  0.2039E+01
    -23.324 -0.2869E+00  0.2007E+01
    -23.213 -0.5714E-01  0.2001E+01
    -23.101 -0.4892E-02  0.2000E+01
    -22.990 -0.2044E-03  0.2000E+01
    -22.879 -0.4355E-05  0.2000E+01
    -22.768 -0.4831E-07  0.2000E+01
    -22.656 -0.2819E-09  0.2000E+01
    -22.545 -0.8735E-12  0.2000E+01
    -22.434  0.0000E+00  0.2000E+01
    -22.322  0.0000E+00  0.2000E+01
    -22.211  0.0000E+00  0.2000E+01
    -22.100  0.0000E+00  0.2000E+01
    -21.989  0.0000E+00  0.2000E+01
    -21.877  0.0000E+00  0.2000E+01
    -21.766  0.0000E+00  0.2000E+01
    -21.655  0.0000E+00  0.2000E+01
    -21.543  0.0000E+00  0.2000E+01
    -21.432  0.0000E+00  0.2000E+01
    -21.321  0.0000E+00  0.2000E+01
    -21.210  0.0000E+00  0.2000E+01
    -21.098  0.0000E+00  0.2000E+01
    -20.987  0.0000E+00  0.2000E+01
    -20.876  0.0000E+00  0.2000E+01
    -20.765  0.0000E+00  0.2000E+01
    -20.653  0.0000E+00  0.2000E+01
    -20.542  0.0000E+00  0.2000E+01
    -20.431  0.0000E+00  0.2000E+01
    -20.319  0.0000E+00  0.2000E+01
    -20.208  0.0000E+00  0.2000E+01
    -20.097  0.0000E+00  0.2000E+01
    -19.986  0.0000E+00  0.2000E+01
    -19.874  0.0000E+00  0.2000E+01
    -19.763  0.0000E+00  0.2000E+01
    -19.652  0.0000E+00  0.2000E+01
    -19.541  0.0000E+00  0.2000E+01
    -19.429  0.0000E+00  0.2000E+01
    -19.318  0.0000E+00  0.2000E+01
    -19.207  0.0000E+00  0.2000E+01
    -19.095  0.0000E+00  0.2000E+01
    -18.984  0.0000E+00  0.2000E+01
    -18.873  0.0000E+00  0.2000E+01
    -18.762  0.0000E+00  0.2000E+01
    -18.650  0.0000E+00  0.2000E+01
    -18.539  0.0000E+00  0.2000E+01
    -18.428  0.0000E+00  0.2000E+01
    -18.317  0.0000E+00  0.2000E+01
    -18.205  0.0000E+00  0.2000E+01
    -18.094  0.0000E+00  0.2000E+01
    -17.983  0.0000E+00  0.2000E+01
    -17.871  0.0000E+00  0.2000E+01
    -17.760  0.0000E+00  0.2000E+01
    -17.649  0.0000E+00  0.2000E+01
    -17.538  0.0000E+00  0.2000E+01
    -17.426  0.0000E+00  0.2000E+01
    -17.315  0.0000E+00  0.2000E+01
    -17.204  0.0000E+00  0.2000E+01
    -17.092  0.0000E+00  0.2000E+01
    -16.981  0.0000E+00  0.2000E+01
    -16.870  0.0000E+00  0.2000E+01
    -16.759  0.0000E+00  0.2000E+01
    -16.647  0.0000E+00  0.2000E+01
    -16.536  0.0000E+00  0.2000E+01
    -16.425  0.0000E+00  0.2000E+01
    -16.314  0.0000E+00  0.2000E+01
    -16.202  0.0000E+00  0.2000E+01
    -16.091  0.0000E+00  0.2000E+01
    -15.980  0.0000E+00  0.2000E+01
    -15.868  0.0000E+00  0.2000E+01
    -15.757  0.0000E+00  0.2000E+01
    -15.646  0.0000E+00  0.2000E+01
    -15.535  0.0000E+00  0.2000E+01
    -15.423  0.0000E+00  0.2000E+01
    -15.312  0.0000E+00  0.2000E+01
    -15.201  0.0000E+00  0.2000E+01
    -15.090  0.0000E+00  0.2000E+01
    -14.978  0.0000E+00  0.2000E+01
    -14.867  0.0000E+00  0.2000E+01
    -14.756  0.0000E+00  0.2000E+01
    -14.644  0.0000E+00  0.2000E+01
    -14.533  0.0000E+00  0.2000E+01
    -14.422  0.0000E+00  0.2000E+01
    -14.311  0.0000E+00  0.2000E+01
    -14.199  0.0000E+00  0.2000E+01
    -14.088  0.0000E+00  0.2000E+01
    -13.977  0.0000E+00  0.2000E+01
    -13.866  0.0000E+00  0.2000E+01
    -13.754  0.0000E+00  0.2000E+01
    -13.643  0.0000E+00  0.2000E+01
    -13.532  0.0000E+00  0.2000E+01
    -13.420  0.0000E+00  0.2000E+01
    -13.309  0.0000E+00  0.2000E+01
    -13.198  0.0000E+00  0.2000E+01
    -13.087  0.0000E+00  0.2000E+01
    -12.975  0.0000E+00  0.2000E+01
    -12.864  0.0000E+00  0.2000E+01
    -12.753  0.0000E+00  0.2000E+01
    -12.642  0.0000E+00  0.2000E+01
    -12.530  0.0000E+00  0.2000E+01
    -12.419  0.0000E+00  0.2000E+01
    -12.308  0.0000E+00  0.2000E+01
    -12.196  0.0000E+00  0.2000E+01
    -12.085  0.0000E+00  0.2000E+01
    -11.974  0.0000E+00  0.2000E+01
    -11.863  0.0000E+00  0.2000E+01
    -11.751 -0.2183E-27  0.2000E+01
    -11.640 -0.1315E-23  0.2000E+01
    -11.529 -0.4276E-20  0.2000E+01
    -11.417 -0.7494E-17  0.2000E+01
    -11.306 -0.7036E-14  0.2000E+01
    -11.195 -0.3472E-11  0.2000E+01
    -11.084 -0.9388E-09  0.2000E+01
    -10.972 -0.1354E-06  0.2000E+01
    -10.861 -0.1033E-04  0.2000E+01
    -10.750 -0.4126E-03  0.2000E+01
    -10.639 -0.8418E-02  0.1999E+01
    -10.527 -0.8322E-01  0.1990E+01
    -10.416 -0.3376E+00  0.1952E+01
    -10.305 -0.3940E-01  0.1948E+01
    -10.193  0.3163E+01  0.2300E+01
    -10.082  0.7612E+01  0.3147E+01
     -9.971  0.6529E+01  0.3873E+01
     -9.860  0.1762E+01  0.4069E+01
     -9.748 -0.3305E+00  0.4033E+01
     -9.637 -0.2449E+00  0.4005E+01
     -9.526 -0.4378E-01  0.4000E+01
     -9.415 -0.3891E-02  0.4000E+01
     -9.303 -0.4161E-02  0.4000E+01
     -9.192 -0.1502E-01  0.3998E+01
     -9.081  0.4734E-03  0.3998E+01
     -8.969  0.1168E+00  0.4011E+01
     -8.858  0.2203E+00  0.4035E+01
     -8.747  0.3434E+00  0.4074E+01
     -8.636  0.1136E+01  0.4200E+01
     -8.524  0.1924E+01  0.4414E+01
     -8.413  0.1242E+01  0.4552E+01
     -8.302  0.1140E+00  0.4565E+01
     -8.191 -0.1406E+00  0.4549E+01
     -8.079  0.5897E+00  0.4615E+01
     -7.968  0.1693E+01  0.4803E+01
     -7.857  0.2009E+01  0.5027E+01
     -7.745  0.2045E+01  0.5254E+01
     -7.634  0.2752E+01  0.5561E+01
     -7.523  0.4993E+01  0.6116E+01
     -7.412  0.7084E+01  0.6905E+01
     -7.300  0.5549E+01  0.7522E+01
     -7.189  0.2825E+01  0.7836E+01
     -7.078  0.1876E+01  0.8045E+01
     -6.966  0.2225E+01  0.8293E+01
     -6.855  0.2941E+01  0.8620E+01
     -6.744  0.6217E+01  0.9312E+01
     -6.633  0.1534E+02  0.1102E+02
     -6.521  0.1972E+02  0.1321E+02
     -6.410  0.1151E+02  0.1449E+02
     -6.299  0.4472E+01  0.1499E+02
     -6.188  0.6468E+01  0.1571E+02
     -6.076  0.1132E+02  0.1697E+02
     -5.965  0.1494E+02  0.1863E+02
     -5.854  0.1550E+02  0.2036E+02
     -5.742  0.1263E+02  0.2176E+02
     -5.631  0.1108E+02  0.2300E+02
     -5.520  0.1556E+02  0.2473E+02
     -5.409  0.2393E+02  0.2739E+02
     -5.297  0.2631E+02  0.3032E+02
     -5.186  0.2280E+02  0.3285E+02
     -5.075  0.2230E+02  0.3533E+02
     -4.964  0.2306E+02  0.3790E+02
     -4.852  0.2087E+02  0.4022E+02
     -4.741  0.1730E+02  0.4215E+02
     -4.630  0.1440E+02  0.4375E+02
     -4.518  0.1626E+02  0.4556E+02
     -4.407  0.2116E+02  0.4791E+02
     -4.296  0.2206E+02  0.5037E+02
     -4.185  0.2112E+02  0.5272E+02
     -4.073  0.2106E+02  0.5506E+02
     -3.962  0.2096E+02  0.5739E+02
     -3.851  0.2116E+02  0.5975E+02
     -3.740  0.2129E+02  0.6212E+02
     -3.628  0.2140E+02  0.6450E+02
     -3.517  0.2305E+02  0.6706E+02
     -3.406  0.2809E+02  0.7019E+02
     -3.294  0.3308E+02  0.7387E+02
     -3.183  0.3366E+02  0.7761E+02
     -3.072  0.3474E+02  0.8148E+02
     -2.961  0.3638E+02  0.8553E+02
     -2.849  0.3252E+02  0.8915E+02
     -2.738  0.3053E+02  0.9254E+02
     -2.627  0.3370E+02  0.9629E+02
     -2.515  0.3442E+02  0.1001E+03
     -2.404  0.3150E+02  0.1036E+03
     -2.293  0.2617E+02  0.1065E+03
     -2.182  0.2272E+02  0.1091E+03
     -2.070  0.2431E+02  0.1118E+03
     -1.959  0.2644E+02  0.1147E+03
     -1.848  0.2658E+02  0.1177E+03
     -1.737  0.2553E+02  0.1205E+03
     -1.625  0.2268E+02  0.1230E+03
     -1.514  0.1875E+02  0.1251E+03
     -1.403  0.1716E+02  0.1270E+03
     -1.291  0.2068E+02  0.1293E+03
     -1.180  0.2554E+02  0.1322E+03
     -1.069  0.2954E+02  0.1355E+03
     -0.958  0.3291E+02  0.1391E+03
     -0.846  0.3248E+02  0.1427E+03
     -0.735  0.2784E+02  0.1458E+03
     -0.624  0.2217E+02  0.1483E+03
     -0.513  0.1957E+02  0.1505E+03
     -0.401  0.1903E+02  0.1526E+03
     -0.290  0.2020E+02  0.1548E+03
     -0.179  0.2808E+02  0.1580E+03
     -0.067  0.3483E+02  0.1618E+03
      0.044  0.3232E+02  0.1654E+03
      0.155  0.3083E+02  0.1689E+03
      0.266  0.3138E+02  0.1724E+03
      0.378  0.2805E+02  0.1755E+03
      0.489  0.2425E+02  0.1782E+03
      0.600  0.1822E+02  0.1802E+03
      0.711  0.1022E+02  0.1814E+03
      0.823  0.4191E+01  0.1818E+03
      0.934  0.1095E+01  0.1819E+03
      1.045  0.1165E+01  0.1821E+03
      1.157  0.3275E+01  0.1824E+03
      1.268  0.4828E+01  0.1830E+03
      1.379  0.3701E+01  0.1834E+03
      1.490  0.2891E+01  0.1837E+03
      1.602  0.5384E+01  0.1843E+03
      1.713  0.7498E+01  0.1851E+03
      1.824  0.7049E+01  0.1859E+03
      1.935  0.6349E+01  0.1866E+03
      2.047  0.5788E+01  0.1873E+03
      2.158  0.5986E+01  0.1879E+03
      2.269  0.7236E+01  0.1887E+03
      2.381  0.6701E+01  0.1895E+03
      2.492  0.5567E+01  0.1901E+03
      2.603  0.5159E+01  0.1907E+03
      2.714  0.4329E+01  0.1912E+03
      2.826  0.4717E+01  0.1917E+03
      2.937  0.5396E+01  0.1923E+03
      3.048  0.5884E+01  0.1929E+03
      3.160  0.7641E+01  0.1938E+03
      3.271  0.9612E+01  0.1949E+03
      3.382  0.9606E+01  0.1959E+03
      3.493  0.6242E+01  0.1966E+03
      3.605  0.3766E+01  0.1970E+03
      3.716  0.6015E+01  0.1977E+03
      3.827  0.8686E+01  0.1987E+03
      3.938  0.7565E+01  0.1995E+03
      4.050  0.5933E+01  0.2002E+03
      4.161  0.6595E+01  0.2009E+03
      4.272  0.5799E+01  0.2016E+03
      4.384  0.3522E+01  0.2020E+03
      4.495  0.2906E+01  0.2023E+03
      4.606  0.3377E+01  0.2027E+03
      4.717  0.5648E+01  0.2033E+03
      4.829  0.8291E+01  0.2042E+03
      4.940  0.6723E+01  0.2050E+03
      5.051  0.4031E+01  0.2054E+03
      5.162  0.3454E+01  0.2058E+03
      5.274  0.2330E+01  0.2060E+03
      5.385  0.2230E+01  0.2063E+03
      5.496  0.4949E+01  0.2068E+03
      5.608  0.6354E+01  0.2076E+03
      5.719  0.3761E+01  0.2080E+03
      5.830  0.6571E+00  0.2080E+03
      5.941 -0.2608E+00  0.2080E+03
      6.053 -0.1320E+00  0.2080E+03
      6.164 -0.2190E-01  0.2080E+03
      6.275 -0.1712E-02  0.2080E+03
      6.386 -0.6814E-04  0.2080E+03
      6.498 -0.1419E-05  0.2080E+03
      6.609 -0.1564E-07  0.2080E+03
      6.720 -0.9173E-10  0.2080E+03
      6.832 -0.2864E-12  0.2080E+03
      6.943 -0.9578E-15  0.2080E+03
      7.054  0.0000E+00  0.2080E+03
      7.165  0.0000E+00  0.2080E+03
      7.277  0.0000E+00  0.2080E+03
      7.388  0.0000E+00  0.2080E+03
      7.499  0.0000E+00  0.2080E+03
      7.611  0.0000E+00  0.2080E+03
      7.61051331    -25.77192657  301      0.19044973      1.00000000
    -25.772  0.0000E+00  0.0000E+00  0.0000E+00
    -25.661  0.0000E+00  0.0000E+00  0.0000E+00
    -25.549  0.0000E+00  0.0000E+00  0.0000E+00
    -25.438 -0.1122E-39 -0.5451E-39 -0.2177E-37
    -25.327 -0.8182E-36 -0.3981E-35 -0.1589E-33
    -25.216 -0.3197E-32 -0.1557E-31 -0.6216E-30
    -25.104 -0.6687E-29 -0.3261E-28 -0.1301E-26
    -24.993 -0.7476E-26 -0.3650E-25 -0.1456E-23
    -24.882 -0.4319E-23 -0.2111E-22 -0.8418E-21
    -24.770 -0.1362E-20 -0.6667E-20 -0.2657E-18
    -24.659 -0.2275E-18 -0.1115E-17 -0.4441E-16
    -24.548 -0.1998E-16 -0.9803E-16 -0.3905E-14
    -24.437 -0.9129E-15 -0.4485E-14 -0.1786E-12
    -24.325 -0.2125E-13 -0.1045E-12 -0.4161E-11
    -24.214 -0.2408E-12 -0.1186E-11 -0.4719E-10
    -24.103 -0.1161E-11 -0.5731E-11 -0.2279E-09
    -23.992 -0.8550E-12 -0.4262E-11 -0.1690E-09
    -23.880  0.9687E-11  0.4774E-10  0.1899E-08
    -23.769  0.2813E-10  0.1390E-09  0.5525E-08
    -23.658  0.2756E-10  0.1364E-09  0.5421E-08
    -23.546  0.8965E-11  0.4450E-10  0.1767E-08
    -23.435 -0.9956E-12 -0.4893E-11 -0.1948E-09
    -23.324 -0.1112E-11 -0.5508E-11 -0.2188E-09
    -23.213 -0.2211E-12 -0.1098E-11 -0.4359E-10
    -23.101 -0.1892E-13 -0.9405E-13 -0.3732E-11
    -22.990 -0.7897E-15 -0.3932E-14 -0.1560E-12
    -22.879 -0.1682E-16 -0.8383E-16 -0.3324E-14
    -22.768 -0.1864E-18 -0.9303E-18 -0.3688E-16
    -22.656 -0.1087E-20 -0.5432E-20 -0.2153E-18
    -22.545 -0.3370E-23 -0.1683E-22 -0.6672E-21
    -22.434  0.0000E+00  0.0000E+00  0.0000E+00
    -22.322  0.0000E+00  0.0000E+00  0.0000E+00
    -22.211  0.0000E+00  0.0000E+00  0.0000E+00
    -22.100  0.0000E+00  0.0000E+00  0.0000E+00
    -21.989  0.0000E+00  0.0000E+00  0.0000E+00
    -21.877  0.0000E+00  0.0000E+00  0.0000E+00
    -21.766  0.0000E+00  0.0000E+00  0.0000E+00
    -21.655  0.0000E+00  0.0000E+00  0.0000E+00
    -21.543  0.0000E+00  0.0000E+00  0.0000E+00
    -21.432  0.0000E+00  0.0000E+00  0.0000E+00
    -21.321  0.0000E+00  0.0000E+00  0.0000E+00
    -21.210  0.0000E+00  0.0000E+00  0.0000E+00
    -21.098  0.0000E+00  0.0000E+00  0.0000E+00
    -20.987  0.0000E+00  0.0000E+00  0.0000E+00
    -20.876  0.0000E+00  0.0000E+00  0.0000E+00
    -20.765  0.0000E+00  0.0000E+00  0.0000E+00
    -20.653  0.0000E+00  0.0000E+00  0.0000E+00
    -20.542  0.0000E+00  0.0000E+00  0.0000E+00
    -20.431  0.0000E+00  0.0000E+00  0.0000E+00
    -20.319  0.0000E+00  0.0000E+00  0.0000E+00
    -20.208  0.0000E+00  0.0000E+00  0.0000E+00
    -20.097  0.0000E+00  0.0000E+00  0.0000E+00
    -19.986  0.0000E+00  0.0000E+00  0.0000E+00
    -19.874  0.0000E+00  0.0000E+00  0.0000E+00
    -19.763  0.0000E+00  0.0000E+00  0.0000E+00
    -19.652  0.0000E+00  0.0000E+00  0.0000E+00
    -19.541  0.0000E+00  0.0000E+00  0.0000E+00
    -19.429  0.0000E+00  0.0000E+00  0.0000E+00
    -19.318  0.0000E+00  0.0000E+00  0.0000E+00
    -19.207  0.0000E+00  0.0000E+00  0.0000E+00
    -19.095  0.0000E+00  0.0000E+00  0.0000E+00
    -18.984  0.0000E+00  0.0000E+00  0.0000E+00
    -18.873  0.0000E+00  0.0000E+00  0.0000E+00
    -18.762  0.0000E+00  0.0000E+00  0.0000E+00
    -18.650  0.0000E+00  0.0000E+00  0.0000E+00
    -18.539  0.0000E+00  0.0000E+00  0.0000E+00
    -18.428  0.0000E+00  0.0000E+00  0.0000E+00
    -18.317  0.0000E+00  0.0000E+00  0.0000E+00
    -18.205  0.0000E+00  0.0000E+00  0.0000E+00
    -18.094  0.0000E+00  0.0000E+00  0.0000E+00
    -17.983  0.0000E+00  0.0000E+00  0.0000E+00
    -17.871  0.0000E+00  0.0000E+00  0.0000E+00
    -17.760  0.0000E+00  0.0000E+00  0.0000E+00
    -17.649  0.0000E+00  0.0000E+00  0.0000E+00
    -17.538  0.0000E+00  0.0000E+00  0.0000E+00
    -17.426  0.0000E+00  0.0000E+00  0.0000E+00
    -17.315  0.0000E+00  0.0000E+00  0.0000E+00
    -17.204  0.0000E+00  0.0000E+00  0.0000E+00
    -17.092  0.0000E+00  0.0000E+00  0.0000E+00
    -16.981  0.0000E+00  0.0000E+00  0.0000E+00
    -16.870  0.0000E+00  0.0000E+00  0.0000E+00
    -16.759  0.0000E+00  0.0000E+00  0.0000E+00
    -16.647  0.0000E+00  0.0000E+00  0.0000E+00
    -16.536  0.0000E+00  0.0000E+00  0.0000E+00
    -16.425  0.0000E+00  0.0000E+00  0.0000E+00
    -16.314  0.0000E+00  0.0000E+00  0.0000E+00
    -16.202  0.0000E+00  0.0000E+00  0.0000E+00
    -16.091  0.0000E+00  0.0000E+00  0.0000E+00
    -15.980  0.0000E+00  0.0000E+00  0.0000E+00
    -15.868  0.0000E+00  0.0000E+00  0.0000E+00
    -15.757  0.0000E+00  0.0000E+00  0.0000E+00
    -15.646  0.0000E+00  0.0000E+00  0.0000E+00
    -15.535  0.0000E+00  0.0000E+00  0.0000E+00
    -15.423  0.0000E+00  0.0000E+00  0.0000E+00
    -15.312  0.0000E+00  0.0000E+00  0.0000E+00
    -15.201  0.0000E+00  0.0000E+00  0.0000E+00
    -15.090  0.0000E+00  0.0000E+00  0.0000E+00
    -14.978  0.0000E+00  0.0000E+00  0.0000E+00
    -14.867  0.0000E+00  0.0000E+00  0.0000E+00
    -14.756  0.0000E+00  0.0000E+00  0.0000E+00
    -14.644  0.0000E+00  0.0000E+00  0.0000E+00
    -14.533  0.0000E+00  0.0000E+00  0.0000E+00
    -14.422  0.0000E+00  0.0000E+00  0.0000E+00
    -14.311  0.0000E+00  0.0000E+00  0.0000E+00
    -14.199  0.0000E+00  0.0000E+00  0.0000E+00
    -14.088  0.0000E+00  0.0000E+00  0.0000E+00
    -13.977  0.0000E+00  0.0000E+00  0.0000E+00
    -13.866  0.0000E+00  0.0000E+00  0.0000E+00
    -13.754  0.0000E+00  0.0000E+00  0.0000E+00
    -13.643  0.0000E+00  0.0000E+00  0.0000E+00
    -13.532  0.0000E+00  0.0000E+00  0.0000E+00
    -13.420  0.0000E+00  0.0000E+00  0.0000E+00
    -13.309  0.0000E+00  0.0000E+00  0.0000E+00
    -13.198  0.0000E+00  0.0000E+00  0.0000E+00
    -13.087  0.0000E+00  0.0000E+00  0.0000E+00
    -12.975  0.0000E+00  0.0000E+00  0.0000E+00
    -12.864  0.0000E+00  0.0000E+00  0.0000E+00
    -12.753  0.0000E+00  0.0000E+00  0.0000E+00
    -12.642  0.0000E+00  0.0000E+00  0.0000E+00
    -12.530  0.0000E+00  0.0000E+00  0.0000E+00
    -12.419  0.0000E+00  0.0000E+00  0.0000E+00
    -12.308  0.0000E+00  0.0000E+00  0.0000E+00
    -12.196  0.0000E+00  0.0000E+00  0.0000E+00
    -12.085  0.0000E+00  0.0000E+00  0.0000E+00
    -11.974  0.0000E+00  0.0000E+00  0.0000E+00
    -11.863  0.0000E+00  0.0000E+00  0.0000E+00
    -11.751 -0.5431E-32 -0.1046E-32 -0.9371E-34
    -11.640 -0.3081E-28 -0.5977E-29 -0.5588E-30
    -11.529 -0.9390E-25 -0.1836E-25 -0.1792E-26
    -11.417 -0.1536E-21 -0.3027E-22 -0.3086E-23
    -11.306 -0.1327E-18 -0.2643E-19 -0.2838E-20
    -11.195 -0.6100E-16 -0.1224E-16 -0.1365E-17
    -11.084 -0.1516E-13 -0.3072E-14 -0.3584E-15
    -10.972 -0.1999E-11 -0.4093E-12 -0.4998E-13
    -10.861 -0.1388E-09 -0.2873E-10 -0.3675E-11
    -10.750 -0.5004E-08 -0.1048E-08 -0.1407E-09
    -10.639 -0.9135E-07 -0.1939E-07 -0.2737E-08
    -10.527 -0.7932E-06 -0.1711E-06 -0.2555E-07
    -10.416 -0.2644E-05 -0.5849E-06 -0.9505E-07
    -10.305  0.1709E-05  0.3185E-06  0.2114E-07
    -10.193  0.2809E-04  0.6115E-05  0.9431E-06
    -10.082  0.5542E-04  0.1236E-04  0.2063E-05
     -9.971  0.4004E-04  0.9137E-05  0.1632E-05
     -9.860  0.7918E-05  0.1895E-05  0.3831E-06
     -9.748 -0.2709E-05 -0.5984E-06 -0.9673E-07
     -9.637 -0.1368E-05 -0.3153E-06 -0.5832E-07
     -9.526 -0.5851E-06 -0.9102E-07 -0.9715E-08
     -9.415 -0.7392E-05 -0.8221E-06 -0.1758E-08
     -9.303 -0.6896E-04 -0.7655E-05 -0.1108E-07
     -9.192 -0.2570E-03 -0.2863E-04 -0.9030E-07
     -9.081  0.1226E-04 -0.6904E-06 -0.9623E-06
     -8.969  0.2035E-02  0.2089E-03 -0.7660E-05
     -8.858  0.3877E-02  0.3791E-03 -0.2351E-04
     -8.747  0.5773E-02  0.6946E-03  0.2620E-04
     -8.636  0.1829E-01  0.2607E-02  0.2740E-03
     -8.524  0.3087E-01  0.4459E-02  0.4891E-03
     -8.413  0.1998E-01  0.2869E-02  0.3031E-03
     -8.302  0.2053E-02  0.2269E-03 -0.2872E-04
     -8.191 -0.2128E-02 -0.3403E-03 -0.7097E-04
     -8.079  0.7718E-02  0.1696E-02  0.5780E-03
     -7.968  0.2232E-01  0.4809E-02  0.1634E-02
     -7.857  0.2672E-01  0.5676E-02  0.2246E-02
     -7.745  0.2954E-01  0.5515E-02  0.2876E-02
     -7.634  0.3775E-01  0.5451E-02  0.2978E-02
     -7.523  0.4501E-01  0.5359E-02  0.2429E-02
     -7.412  0.4413E-01  0.5766E-02  0.2596E-02
     -7.300  0.3899E-01  0.4657E-02  0.2871E-02
     -7.189  0.4750E-01  0.3169E-02  0.3279E-02
     -7.078  0.4634E-01  0.4166E-02  0.5980E-02
     -6.966  0.3355E-01  0.9295E-02  0.1231E-01
     -6.855  0.4936E-01  0.1496E-01  0.1564E-01
     -6.744  0.9196E-01  0.1704E-01  0.1506E-01
     -6.633  0.1208E+00  0.1736E-01  0.1823E-01
     -6.521  0.1034E+00  0.1598E-01  0.2093E-01
     -6.410  0.7104E-01  0.1299E-01  0.2112E-01
     -6.299  0.6565E-01  0.9150E-02  0.4072E-01
     -6.188  0.1009E+00  0.1258E-01  0.1085E+00
     -6.076  0.1352E+00  0.2776E-01  0.1797E+00
     -5.965  0.1488E+00  0.4752E-01  0.1973E+00
     -5.854  0.1617E+00  0.5253E-01  0.1775E+00
     -5.742  0.1460E+00  0.3731E-01  0.1490E+00
     -5.631  0.1367E+00  0.2944E-01  0.1648E+00
     -5.520  0.1803E+00  0.4064E-01  0.2845E+00
     -5.409  0.2434E+00  0.5944E-01  0.4873E+00
     -5.297  0.2541E+00  0.6565E-01  0.6384E+00
     -5.186  0.2037E+00  0.5178E-01  0.7280E+00
     -5.075  0.1754E+00  0.4282E-01  0.8395E+00
     -4.964  0.1634E+00  0.5131E-01  0.8388E+00
     -4.852  0.1442E+00  0.5932E-01  0.6754E+00
     -4.741  0.1289E+00  0.5186E-01  0.5552E+00
     -4.630  0.8629E-01  0.3704E-01  0.5240E+00
     -4.518  0.4615E-01  0.3475E-01  0.6189E+00
     -4.407  0.3705E-01  0.4740E-01  0.8389E+00
     -4.296  0.2789E-01  0.6092E-01  0.1020E+01
     -4.185  0.2388E-01  0.6508E-01  0.1058E+01
     -4.073  0.3174E-01  0.5661E-01  0.9504E+00
     -3.962  0.3412E-01  0.4683E-01  0.8330E+00
     -3.851  0.2784E-01  0.3961E-01  0.8157E+00
     -3.740  0.2001E-01  0.3084E-01  0.9240E+00
     -3.628  0.2167E-01  0.2619E-01  0.9803E+00
     -3.517  0.3264E-01  0.2754E-01  0.8709E+00
     -3.406  0.3965E-01  0.3519E-01  0.9301E+00
     -3.294  0.4606E-01  0.5308E-01  0.1271E+01
     -3.183  0.7045E-01  0.7572E-01  0.1626E+01
     -3.072  0.8735E-01  0.8321E-01  0.1890E+01
     -2.961  0.5928E-01  0.6549E-01  0.1870E+01
     -2.849  0.2117E-01  0.3962E-01  0.1559E+01
     -2.738  0.1326E-01  0.2974E-01  0.1642E+01
     -2.627  0.2370E-01  0.3877E-01  0.2096E+01
     -2.515  0.3632E-01  0.5763E-01  0.2200E+01
     -2.404  0.4716E-01  0.8751E-01  0.1982E+01
     -2.293  0.6673E-01  0.1217E+00  0.1683E+01
     -2.182  0.1077E+00  0.1497E+00  0.1510E+01
     -2.070  0.1284E+00  0.1562E+00  0.1484E+01
     -1.959  0.9042E-01  0.1220E+00  0.1648E+01
     -1.848  0.4168E-01  0.8133E-01  0.1942E+01
     -1.737  0.2301E-01  0.7509E-01  0.1951E+01
     -1.625  0.2080E-01  0.6685E-01  0.1684E+01
     -1.514  0.1675E-01  0.3475E-01  0.1264E+01
     -1.403  0.1002E-01  0.1009E-01  0.8226E+00
     -1.291  0.9072E-02  0.9524E-02  0.8914E+00
     -1.180  0.1459E-01  0.2730E-01  0.1449E+01
     -1.069  0.2778E-01  0.7101E-01  0.1964E+01
     -0.958  0.5074E-01  0.1277E+00  0.2297E+01
     -0.846  0.7063E-01  0.1357E+00  0.2304E+01
     -0.735  0.7166E-01  0.9555E-01  0.1915E+01
     -0.624  0.5921E-01  0.7019E-01  0.1536E+01
     -0.513  0.4191E-01  0.5888E-01  0.1587E+01
     -0.401  0.2317E-01  0.3391E-01  0.1661E+01
     -0.290  0.1505E-01  0.2162E-01  0.1385E+01
     -0.179  0.2310E-01  0.4423E-01  0.1429E+01
     -0.067  0.3432E-01  0.6393E-01  0.1732E+01
      0.044  0.3073E-01  0.4631E-01  0.1666E+01
      0.155  0.2163E-01  0.2458E-01  0.1631E+01
      0.266  0.2254E-01  0.2799E-01  0.1681E+01
      0.378  0.3523E-01  0.5117E-01  0.1480E+01
      0.489  0.5514E-01  0.7629E-01  0.1225E+01
      0.600  0.6281E-01  0.7474E-01  0.9911E+00
      0.711  0.4650E-01  0.5031E-01  0.7075E+00
      0.823  0.1896E-01  0.2608E-01  0.3376E+00
      0.934  0.9959E-03  0.1298E-01  0.5860E-01
      1.045  0.6400E-02  0.1465E-01  0.2185E-02
      1.157  0.2938E-01  0.3050E-01  0.5954E-01
      1.268  0.4183E-01  0.5150E-01  0.1087E+00
      1.379  0.3759E-01  0.5044E-01  0.8831E-01
      1.490  0.5047E-01  0.4550E-01  0.6808E-01
      1.602  0.6908E-01  0.6935E-01  0.1285E+00
      1.713  0.5974E-01  0.8769E-01  0.2007E+00
      1.824  0.6145E-01  0.7646E-01  0.2035E+00
      1.935  0.6818E-01  0.5306E-01  0.1412E+00
      2.047  0.3874E-01  0.5197E-01  0.7518E-01
      2.158  0.1974E-01  0.8391E-01  0.1024E+00
      2.269  0.3774E-01  0.1011E+00  0.2144E+00
      2.381  0.4724E-01  0.7196E-01  0.2657E+00
      2.492  0.4611E-01  0.2665E-01  0.3116E+00
      2.603  0.4657E-01  0.7225E-02  0.3465E+00
      2.714  0.2836E-01  0.4309E-01  0.2251E+00
      2.826  0.8010E-02  0.1090E+00  0.9817E-01
      2.937  0.2912E-02  0.1191E+00  0.5668E-01
      3.048  0.1193E-01  0.1109E+00  0.4357E-01
      3.160  0.3088E-01  0.1446E+00  0.4685E-01
      3.271  0.4776E-01  0.1522E+00  0.6376E-01
      3.382  0.5554E-01  0.1008E+00  0.8500E-01
      3.493  0.4488E-01  0.4415E-01  0.7163E-01
      3.605  0.3478E-01  0.4519E-01  0.4950E-01
      3.716  0.6099E-01  0.8030E-01  0.9192E-01
      3.827  0.8712E-01  0.7956E-01  0.1529E+00
      3.938  0.6090E-01  0.6662E-01  0.1298E+00
      4.050  0.2706E-01  0.9316E-01  0.7492E-01
      4.161  0.2418E-01  0.1224E+00  0.6938E-01
      4.272  0.1755E-01  0.8859E-01  0.5831E-01
      4.384  0.4401E-02  0.3546E-01  0.3653E-01
      4.495  0.3609E-02  0.1980E-01  0.4577E-01
      4.606  0.1295E-01  0.2729E-01  0.6563E-01
      4.717  0.4220E-01  0.6968E-01  0.1097E+00
      4.829  0.7646E-01  0.1165E+00  0.1540E+00
      4.940  0.7108E-01  0.8498E-01  0.1146E+00
      5.051  0.6014E-01  0.2150E-01  0.6522E-01
      5.162  0.6068E-01 -0.1689E-02  0.6559E-01
      5.274  0.4727E-01 -0.2038E-02  0.4380E-01
      5.385  0.6909E-01  0.1129E-01  0.1995E-01
      5.496  0.1065E+00  0.4549E-01  0.4553E-01
      5.608  0.8826E-01  0.6133E-01  0.7112E-01
      5.719  0.3863E-01  0.3288E-01  0.4565E-01
      5.830  0.5367E-02  0.3585E-02  0.8283E-02
      5.941 -0.2996E-02 -0.2715E-02 -0.3116E-02
      6.053 -0.1498E-02 -0.1022E-02 -0.1570E-02
      6.164 -0.2624E-03 -0.1451E-03 -0.2558E-03
      6.275 -0.2164E-04 -0.1014E-04 -0.1962E-04
      6.386 -0.8996E-06 -0.3722E-06 -0.7678E-06
      6.498 -0.1937E-07 -0.7322E-08 -0.1577E-07
      6.609 -0.2187E-09 -0.7763E-10 -0.1719E-09
      6.720 -0.1305E-11 -0.4437E-12 -0.9996E-12
      6.832 -0.4121E-14 -0.1360E-14 -0.3104E-14
      6.943 -0.1422E-16 -0.4429E-17 -0.1020E-16
      7.054  0.0000E+00  0.0000E+00  0.0000E+00
      7.165  0.0000E+00  0.0000E+00  0.0000E+00
      7.277  0.0000E+00  0.0000E+00  0.0000E+00
      7.388  0.0000E+00  0.0000E+00  0.0000E+00
      7.499  0.0000E+00  0.0000E+00  0.0000E+00
      7.611  0.0000E+00  0.0000E+00  0.0000E+00
      7.61051331    -25.77192657  301      0.19044973      1.00000000
    -25.772  0.0000E+00  0.0000E+00  0.0000E+00
    -25.661  0.0000E+00  0.0000E+00  0.0000E+00
    -25.549  0.0000E+00  0.0000E+00  0.0000E+00
    -25.438 -0.2814E-39 -0.5920E-39 -0.2230E-37
    -25.327 -0.2049E-35 -0.4323E-35 -0.1626E-33
    -25.216 -0.7990E-32 -0.1691E-31 -0.6355E-30
    -25.104 -0.1668E-28 -0.3540E-28 -0.1329E-26
    -24.993 -0.1861E-25 -0.3961E-25 -0.1486E-23
    -24.882 -0.1073E-22 -0.2291E-22 -0.8580E-21
    -24.770 -0.3377E-20 -0.7232E-20 -0.2706E-18
    -24.659 -0.5628E-18 -0.1209E-17 -0.4519E-16
    -24.548 -0.4933E-16 -0.1063E-15 -0.3969E-14
    -24.437 -0.2249E-14 -0.4862E-14 -0.1813E-12
    -24.325 -0.5225E-13 -0.1133E-12 -0.4220E-11
    -24.214 -0.5905E-12 -0.1285E-11 -0.4781E-10
    -24.103 -0.2839E-11 -0.6207E-11 -0.2305E-09
    -23.992 -0.2055E-11 -0.4608E-11 -0.1696E-09
    -23.880  0.2374E-10  0.5172E-10  0.1924E-08
    -23.769  0.6864E-10  0.1505E-09  0.5584E-08
    -23.658  0.6705E-10  0.1477E-09  0.5471E-08
    -23.546  0.2171E-10  0.4814E-10  0.1779E-08
    -23.435 -0.2450E-11 -0.5304E-11 -0.1977E-09
    -23.324 -0.2699E-11 -0.5961E-11 -0.2206E-09
    -23.213 -0.5354E-12 -0.1188E-11 -0.4388E-10
    -23.101 -0.4569E-13 -0.1017E-12 -0.3753E-11
    -22.990 -0.1903E-14 -0.4251E-14 -0.1567E-12
    -22.879 -0.4044E-16 -0.9062E-16 -0.3336E-14
    -22.768 -0.4474E-18 -0.1005E-17 -0.3698E-16
    -22.656 -0.2604E-20 -0.5870E-20 -0.2156E-18
    -22.545 -0.8050E-23 -0.1820E-22 -0.6679E-21
    -22.434  0.0000E+00  0.0000E+00  0.0000E+00
    -22.322  0.0000E+00  0.0000E+00  0.0000E+00
    -22.211  0.0000E+00  0.0000E+00  0.0000E+00
    -22.100  0.0000E+00  0.0000E+00  0.0000E+00
    -21.989  0.0000E+00  0.0000E+00  0.0000E+00
    -21.877  0.0000E+00  0.0000E+00  0.0000E+00
    -21.766  0.0000E+00  0.0000E+00  0.0000E+00
    -21.655  0.0000E+00  0.0000E+00  0.0000E+00
    -21.543  0.0000E+00  0.0000E+00  0.0000E+00
    -21.432  0.0000E+00  0.0000E+00  0.0000E+00
    -21.321  0.0000E+00  0.0000E+00  0.0000E+00
    -21.210  0.0000E+00  0.0000E+00  0.0000E+00
    -21.098  0.0000E+00  0.0000E+00  0.0000E+00
    -20.987  0.0000E+00  0.0000E+00  0.0000E+00
    -20.876  0.0000E+00  0.0000E+00  0.0000E+00
    -20.765  0.0000E+00  0.0000E+00  0.0000E+00
    -20.653  0.0000E+00  0.0000E+00  0.0000E+00
    -20.542  0.0000E+00  0.0000E+00  0.0000E+00
    -20.431  0.0000E+00  0.0000E+00  0.0000E+00
    -20.319  0.0000E+00  0.0000E+00  0.0000E+00
    -20.208  0.0000E+00  0.0000E+00  0.0000E+00
    -20.097  0.0000E+00  0.0000E+00  0.0000E+00
    -19.986  0.0000E+00  0.0000E+00  0.0000E+00
    -19.874  0.0000E+00  0.0000E+00  0.0000E+00
    -19.763  0.0000E+00  0.0000E+00  0.0000E+00
    -19.652  0.0000E+00  0.0000E+00  0.0000E+00
    -19.541  0.0000E+00  0.0000E+00  0.0000E+00
    -19.429  0.0000E+00  0.0000E+00  0.0000E+00
    -19.318  0.0000E+00  0.0000E+00  0.0000E+00
    -19.207  0.0000E+00  0.0000E+00  0.0000E+00
    -19.095  0.0000E+00  0.0000E+00  0.0000E+00
    -18.984  0.0000E+00  0.0000E+00  0.0000E+00
    -18.873  0.0000E+00  0.0000E+00  0.0000E+00
    -18.762  0.0000E+00  0.0000E+00  0.0000E+00
    -18.650  0.0000E+00  0.0000E+00  0.0000E+00
    -18.539  0.0000E+00  0.0000E+00  0.0000E+00
    -18.428  0.0000E+00  0.0000E+00  0.0000E+00
    -18.317  0.0000E+00  0.0000E+00  0.0000E+00
    -18.205  0.0000E+00  0.0000E+00  0.0000E+00
    -18.094  0.0000E+00  0.0000E+00  0.0000E+00
    -17.983  0.0000E+00  0.0000E+00  0.0000E+00
    -17.871  0.0000E+00  0.0000E+00  0.0000E+00
    -17.760  0.0000E+00  0.0000E+00  0.0000E+00
    -17.649  0.0000E+00  0.0000E+00  0.0000E+00
    -17.538  0.0000E+00  0.0000E+00  0.0000E+00
    -17.426  0.0000E+00  0.0000E+00  0.0000E+00
    -17.315  0.0000E+00  0.0000E+00  0.0000E+00
    -17.204  0.0000E+00  0.0000E+00  0.0000E+00
    -17.092  0.0000E+00  0.0000E+00  0.0000E+00
    -16.981  0.0000E+00  0.0000E+00  0.0000E+00
    -16.870  0.0000E+00  0.0000E+00  0.0000E+00
    -16.759  0.0000E+00  0.0000E+00  0.0000E+00
    -16.647  0.0000E+00  0.0000E+00  0.0000E+00
    -16.536  0.0000E+00  0.0000E+00  0.0000E+00
    -16.425  0.0000E+00  0.0000E+00  0.0000E+00
    -16.314  0.0000E+00  0.0000E+00  0.0000E+00
    -16.202  0.0000E+00  0.0000E+00  0.0000E+00
    -16.091  0.0000E+00  0.0000E+00  0.0000E+00
    -15.980  0.0000E+00  0.0000E+00  0.0000E+00
    -15.868  0.0000E+00  0.0000E+00  0.0000E+00