   18   18    1    1
  0.4124378E+02  0.5643844E-09  0.5643844E-09  0.2691227E-08  0.5000000E-15
  1.000000000000000E-004
  CAR 
 unknown system                          
    170     13    104
 
  0.0000000E+00  0.0000000E+00  0.0000000E+00  0.4000000E-01
    1      -23.771927   1.000000
    2      -10.135871   1.000000
    3       -8.888197   1.000000
    4       -7.708059   1.000000
    5       -7.315726   1.000000
    6       -6.606128   1.000000
    7       -6.605975   1.000000
    8       -6.590437   1.000000
    9       -6.441759   1.000000
   10       -6.194293   1.000000
   11       -6.194277   1.000000
   12       -6.144929   1.000000
   13       -6.055622   1.000000
   14       -6.000608   1.000000
   15       -6.000599   1.000000
   16       -5.589581   1.000000
   17       -5.589570   1.000000
   18       -5.527909   1.000000
   19       -5.423009   1.000000
   20       -5.422986   1.000000
   21       -5.394938   1.000000
   22       -5.308808   1.000000
   23       -5.308799   1.000000
   24       -5.293266   1.000000
   25       -4.574844   1.000000
   26       -4.574841   1.000000
   27       -4.480036   1.000000
   28       -3.762413   1.000000
   29       -3.762396   1.000000
   30       -3.509215   1.000000
   31       -3.414680   1.000000
   32       -3.414675   1.000000
   33       -3.379859   1.000000
   34       -3.341512   1.000000
   35       -3.222161   1.000000
   36       -3.222159   1.000000
   37       -3.124444   1.000000
   38       -3.124438   1.000000
   39       -3.124408   1.000000
   40       -3.000657   1.000000
   41       -2.997719   1.000000
   42       -2.997706   1.000000
   43       -2.849347   1.000000
   44       -2.849331   1.000000
   45       -2.684306   1.000000
   46       -2.684299   1.000000
   47       -2.408280   1.000000
   48       -2.398857   1.000000
   49       -2.398850   1.000000
   50       -2.192110   1.000000
   51       -2.192088   1.000000
   52       -2.084434   1.000000
   53       -1.963865   1.000000
   54       -1.856864   1.000000
   55       -1.856849   1.000000
   56       -1.620458   1.000000
   57       -1.397521   1.000000
   58       -1.397514   1.000000
   59       -1.199275   1.000000
   60       -1.199257   1.000000
   61       -0.896917   1.000000
   62       -0.896907   1.000000
   63       -0.708487   1.000000
   64       -0.703924   1.000000
   65       -0.586768   1.000000
   66       -0.586757   1.000000
   67       -0.425789   1.000059
   68       -0.425781   1.000059
   69       -0.142088   1.020200
   70       -0.142009   1.020218
   71       -0.141989   1.020223
   72       -0.001074   1.020151
   73       -0.001062   1.020144
   74        0.073651   0.912701
   75        0.127117   0.753669
   76        0.127127   0.753634
   77        0.232807   0.325154
   78        0.232814   0.325126
   79        0.234302   0.319299
   80        0.330360   0.040284
   81        0.330394   0.040223
   82        0.395102  -0.027376
   83        0.453598  -0.034334
   84        0.453610  -0.034332
   85        0.471870  -0.031510
   86        0.634723  -0.003668
   87        0.655913  -0.002418
   88        0.655919  -0.002418
   89        0.673716  -0.001669
   90        0.977619  -0.000000
   91        0.977628  -0.000000
   92        0.998005  -0.000000
   93        2.085511  -0.000000
   94        2.085537  -0.000000
   95        2.318837  -0.000000
   96        2.594996  -0.000000
   97        2.836263  -0.000000
   98        2.836277  -0.000000
   99        3.020591  -0.000000
  100        3.020606  -0.000000
  101        3.057003  -0.000000
  102        3.248966  -0.000000
  103        4.236123  -0.000000
  104        4.236244  -0.000000
 
  0.2000000E+00  0.2775558E-16  0.0000000E+00  0.8000000E-01
    1      -23.771672   1.000000
    2      -10.117219   1.000000
    3       -8.571669   1.000000
    4       -7.525535   1.000000
    5       -7.177076   1.000000
    6       -6.600246   1.000000
    7       -6.595326   1.000000
    8       -6.279688   1.000000
    9       -6.207265   1.000000
   10       -6.133383   1.000000
   11       -5.977444   1.000000
   12       -5.955910   1.000000
   13       -5.916785   1.000000
   14       -5.792415   1.000000
   15       -5.767909   1.000000
   16       -5.462149   1.000000
   17       -5.427244   1.000000
   18       -5.403733   1.000000
   19       -5.345150   1.000000
   20       -5.194608   1.000000
   21       -5.169346   1.000000
   22       -5.137120   1.000000
   23       -5.018636   1.000000
   24       -5.014937   1.000000
   25       -4.483276   1.000000
   26       -4.477730   1.000000
   27       -4.385722   1.000000
   28       -3.827541   1.000000
   29       -3.759127   1.000000
   30       -3.628314   1.000000
   31       -3.577794   1.000000
   32       -3.500397   1.000000
   33       -3.407048   1.000000
   34       -3.363609   1.000000
   35       -3.320634   1.000000
   36       -3.240860   1.000000
   37       -3.099585   1.000000
   38       -3.007812   1.000000
   39       -2.992792   1.000000
   40       -2.986583   1.000000
   41       -2.953124   1.000000
   42       -2.933308   1.000000
   43       -2.905050   1.000000
   44       -2.765052   1.000000
   45       -2.706917   1.000000
   46       -2.701390   1.000000
   47       -2.642113   1.000000
   48       -2.549227   1.000000
   49       -2.542920   1.000000
   50       -2.484013   1.000000
   51       -2.438871   1.000000
   52       -2.340675   1.000000
   53       -2.103783   1.000000
   54       -2.080927   1.000000
   55       -1.937366   1.000000
   56       -1.777641   1.000000
   57       -1.543087   1.000000
   58       -1.533148   1.000000
   59       -1.319098   1.000000
   60       -1.317345   1.000000
   61       -1.228402   1.000000
   62       -1.166640   1.000000
   63       -1.050082   1.000000
   64       -0.987370   1.000000
   65       -0.966847   1.000000
   66       -0.926045   1.000000
   67       -0.883272   1.000000
   68       -0.786762   1.000000
   69       -0.782555   1.000000
   70       -0.588303   1.000000
   71       -0.471848   1.000015
   72       -0.390312   1.000158
   73       -0.279076   1.002226
   74       -0.256285   1.003499
   75       -0.199507   1.009371
   76       -0.170122   1.014322
   77       -0.152462   1.017917
   78       -0.110944   1.027340
   79       -0.105011   1.028651
   80       -0.029411   1.032600
   81        0.117970   0.785501
   82        0.122681   0.769320
   83        0.130520   0.741402
   84        0.209265   0.420776
   85        0.216237   0.391884
   86        0.219595   0.378115
   87        0.368491  -0.009664
   88        0.427228  -0.035186
   89        0.451784  -0.034535
   90        0.460919  -0.033362
   91        1.298312  -0.000000
   92        1.644872  -0.000000
   93        1.699321  -0.000000
   94        1.785504  -0.000000
   95        2.147802  -0.000000
   96        2.275095  -0.000000
   97        2.801570  -0.000000
   98        2.814052  -0.000000
   99        3.322463  -0.000000
  100        3.665352  -0.000000
  101        4.026847  -0.000000
  102        4.422894  -0.000000
  103        4.789043  -0.000000
  104        4.885525  -0.000000
 
  0.4000000E+00  0.5551115E-16  0.0000000E+00  0.8000000E-01
    1      -23.771100   1.000000
    2      -10.092560   1.000000
    3       -7.736686   1.000000
    4       -7.400949   1.000000
    5       -6.669677   1.000000
    6       -6.584871   1.000000
    7       -6.584644   1.000000
    8       -6.460631   1.000000
    9       -5.896502   1.000000
   10       -5.572384   1.000000
   11       -5.468570   1.000000
   12       -5.459017   1.000000
   13       -5.398543   1.000000
   14       -5.366435   1.000000
   15       -5.332711   1.000000
   16       -5.278830   1.000000
   17       -5.005409   1.000000
   18       -4.943690   1.000000
   19       -4.917270   1.000000
   20       -4.835294   1.000000
   21       -4.736316   1.000000
   22       -4.674423   1.000000
   23       -4.406344   1.000000
   24       -4.349999   1.000000
   25       -4.224182   1.000000
   26       -4.208282   1.000000
   27       -4.201312   1.000000
   28       -4.093662   1.000000
   29       -3.989340   1.000000
   30       -3.941173   1.000000
   31       -3.849865   1.000000
   32       -3.762297   1.000000
   33       -3.614665   1.000000
   34       -3.560730   1.000000
   35       -3.509420   1.000000
   36       -3.426017   1.000000
   37       -3.323212   1.000000
   38       -3.321258   1.000000
   39       -3.242626   1.000000
   40       -3.164944   1.000000
   41       -3.123783   1.000000
   42       -3.005478   1.000000
   43       -2.975234   1.000000
   44       -2.866101   1.000000
   45       -2.749787   1.000000
   46       -2.718050   1.000000
   47       -2.668613   1.000000
   48       -2.662581   1.000000
   49       -2.632066   1.000000
   50       -2.516138   1.000000
   51       -2.505846   1.000000
   52       -2.430534   1.000000
   53       -2.357837   1.000000
   54       -2.330925   1.000000
   55       -2.277477   1.000000
   56       -2.234087   1.000000
   57       -2.159069   1.000000
   58       -2.104590   1.000000
   59       -2.086158   1.000000
   60       -1.969510   1.000000
   61       -1.884915   1.000000
   62       -1.875215   1.000000
   63       -1.768674   1.000000
   64       -1.649936   1.000000
   65       -1.545811   1.000000
   66       -1.408320   1.000000
   67       -1.331615   1.000000
   68       -1.277174   1.000000
   69       -1.172738   1.000000
   70       -1.098721   1.000000
   71       -1.076410   1.000000
   72       -1.018634   1.000000
   73       -0.980000   1.000000
   74       -0.958682   1.000000
   75       -0.851366   1.000000
   76       -0.810228   1.000000
   77       -0.735004   1.000000
   78       -0.626910   1.000000
   79       -0.470343   1.000015
   80       -0.464716   1.000018
   81       -0.291719   1.001709
   82       -0.107052   1.028205
   83       -0.096337   1.030468
   84        0.118815   0.782632
   85        0.129811   0.743974
   86        0.215943   0.393094
   87        0.261604   0.219005
   88        0.413844  -0.033395
   89        0.463102  -0.033027
   90        0.509134  -0.023370
   91        1.151878  -0.000000
   92        1.957826  -0.000000
   93        1.977677  -0.000000
   94        2.241220  -0.000000
   95        2.269335  -0.000000
   96        2.552244  -0.000000
   97        3.147442  -0.000000
   98        3.157684  -0.000000
   99        3.425638  -0.000000
  100        3.797644  -0.000000
  101        4.200827  -0.000000
  102        4.530005  -0.000000
  103        5.523739  -0.000000
  104        5.548010  -0.000000
 
  0.0000000E+00  0.2000000E+00  0.0000000E+00  0.8000000E-01
    1      -23.771672   1.000000
    2      -10.117219   1.000000
    3       -8.571669   1.000000
    4       -7.525535   1.000000
    5       -7.177076   1.000000
    6       -6.600245   1.000000
    7       -6.595327   1.000000
    8       -6.279686   1.000000
    9       -6.207266   1.000000
   10       -6.133384   1.000000
   11       -5.977441   1.000000
   12       -5.955914   1.000000
   13       -5.916783   1.000000
   14       -5.792425   1.000000
   15       -5.767901   1.000000
   16       -5.462151   1.000000
   17       -5.427237   1.000000
   18       -5.403741   1.000000
   19       -5.345146   1.000000
   20       -5.194612   1.000000
   21       -5.169344   1.000000
   22       -5.137116   1.000000
   23       -5.018631   1.000000
   24       -5.014944   1.000000
   25       -4.483280   1.000000
   26       -4.477727   1.000000
   27       -4.385723   1.000000
   28       -3.827547   1.000000
   29       -3.759121   1.000000
   30       -3.628308   1.000000
   31       -3.577790   1.000000
   32       -3.500397   1.000000
   33       -3.407047   1.000000
   34       -3.363611   1.000000
   35       -3.320637   1.000000
   36       -3.240859   1.000000
   37       -3.099587   1.000000
   38       -3.007805   1.000000
   39       -2.992795   1.000000
   40       -2.986577   1.000000
   41       -2.953126   1.000000
   42       -2.933304   1.000000
   43       -2.905061   1.000000
   44       -2.765046   1.000000
   45       -2.706910   1.000000
   46       -2.701391   1.000000
   47       -2.642127   1.000000
   48       -2.549225   1.000000
   49       -2.542922   1.000000
   50       -2.484008   1.000000
   51       -2.438869   1.000000
   52       -2.340684   1.000000
   53       -2.103774   1.000000
   54       -2.080943   1.000000
   55       -1.937354   1.000000
   56       -1.777638   1.000000
   57       -1.543092   1.000000
   58       -1.533151   1.000000
   59       -1.319098   1.000000
   60       -1.317339   1.000000
   61       -1.228401   1.000000
   62       -1.166642   1.000000
   63       -1.050097   1.000000
   64       -0.987371   1.000000
   65       -0.966854   1.000000
   66       -0.926038   1.000000
   67       -0.883264   1.000000
   68       -0.786782   1.000000
   69       -0.782557   1.000000
   70       -0.588294   1.000000
   71       -0.471845   1.000015
   72       -0.390318   1.000158
   73       -0.279073   1.002226
   74       -0.256271   1.003500
   75       -0.199507   1.009371
   76       -0.170132   1.014320
   77       -0.152456   1.017919
   78       -0.110946   1.027339
   79       -0.105014   1.028650
   80       -0.029409   1.032600
   81        0.117970   0.785501
   82        0.122669   0.769360
   83        0.130531   0.741361
   84        0.209269   0.420759
   85        0.216234   0.391897
   86        0.219590   0.378137
   87        0.368492  -0.009665
   88        0.427237  -0.035187
   89        0.451791  -0.034534
   90        0.460905  -0.033364
   91        1.298306  -0.000000
   92        1.644878  -0.000000
   93        1.699323  -0.000000
   94        1.785510  -0.000000
   95        2.147795  -0.000000
   96        2.275101  -0.000000
   97        2.801561  -0.000000
   98        2.814054  -0.000000
   99        3.322467  -0.000000
  100        3.665352  -0.000000
  101        4.026851  -0.000000
  102        4.422887  -0.000000
  103        4.789047  -0.000000
  104        4.885577  -0.000000
 
  0.2000000E+00  0.2000000E+00  0.0000000E+00  0.8000000E-01
    1      -23.771672   1.000000
    2      -10.117219   1.000000
    3       -8.571669   1.000000
    4       -7.525535   1.000000
    5       -7.177075   1.000000
    6       -6.600378   1.000000
    7       -6.595209   1.000000
    8       -6.279683   1.000000
    9       -6.207273   1.000000
   10       -6.133382   1.000000
   11       -5.977432   1.000000
   12       -5.955914   1.000000
   13       -5.916784   1.000000
   14       -5.792418   1.000000
   15       -5.767907   1.000000
   16       -5.462147   1.000000
   17       -5.427239   1.000000
   18       -5.403738   1.000000
   19       -5.345143   1.000000
   20       -5.194620   1.000000
   21       -5.169342   1.000000
   22       -5.137113   1.000000
   23       -5.018633   1.000000
   24       -5.014946   1.000000
   25       -4.483279   1.000000
   26       -4.477729   1.000000
   27       -4.385721   1.000000
   28       -3.827533   1.000000
   29       -3.759133   1.000000
   30       -3.628312   1.000000
   31       -3.577791   1.000000
   32       -3.500393   1.000000
   33       -3.407043   1.000000
   34       -3.363606   1.000000
   35       -3.320641   1.000000
   36       -3.240858   1.000000
   37       -3.099588   1.000000
   38       -3.007803   1.000000
   39       -2.992785   1.000000
   40       -2.986576   1.000000
   41       -2.953106   1.000000
   42       -2.933307   1.000000
   43       -2.905085   1.000000
   44       -2.765042   1.000000
   45       -2.706907   1.000000
   46       -2.701394   1.000000
   47       -2.642134   1.000000
   48       -2.549220   1.000000
   49       -2.542935   1.000000
   50       -2.484002   1.000000
   51       -2.438865   1.000000
   52       -2.340690   1.000000
   53       -2.103773   1.000000
   54       -2.080956   1.000000
   55       -1.937349   1.000000
   56       -1.777630   1.000000
   57       -1.543099   1.000000
   58       -1.533149   1.000000
   59       -1.319087   1.000000
   60       -1.317333   1.000000
   61       -1.228393   1.000000
   62       -1.166651   1.000000
   63       -1.050111   1.000000
   64       -0.987371   1.000000
   65       -0.966848   1.000000
   66       -0.926037   1.000000
   67       -0.883268   1.000000
   68       -0.786792   1.000000
   69       -0.782555   1.000000
   70       -0.588304   1.000000
   71       -0.471843   1.000015
   72       -0.390311   1.000158
   73       -0.279072   1.002226
   74       -0.256285   1.003499
   75       -0.199507   1.009371
   76       -0.170141   1.014318
   77       -0.152455   1.017919
   78       -0.110941   1.027340
   79       -0.105022   1.028648
   80       -0.029407   1.032599
   81        0.117968   0.785509
   82        0.122681   0.769319
   83        0.130518   0.741409
   84        0.209281   0.420707
   85        0.216241   0.391868
   86        0.219595   0.378117
   87        0.368499  -0.009672
   88        0.427227  -0.035186
   89        0.451773  -0.034536
   90        0.460913  -0.033362
   91        1.298301  -0.000000
   92        1.644884  -0.000000
   93        1.699321  -0.000000
   94        1.785496  -0.000000
   95        2.147810  -0.000000
   96        2.275091  -0.000000
   97        2.801583  -0.000000
   98        2.814073  -0.000000
   99        3.322391  -0.000000
  100        3.665332  -0.000000
  101        4.026904  -0.000000
  102        4.422912  -0.000000
  103        4.789069  -0.000000
  104        4.885547  -0.000000
 
  0.4000000E+00  0.2000000E+00  0.0000000E+00  0.8000000E-01
    1      -23.770965   1.000000
    2      -10.096956   1.000000
    3       -7.980593   1.000000
    4       -7.426554   1.000000
    5       -6.696175   1.000000
    6       -6.586078   1.000000
    7       -6.584178   1.000000
    8       -6.122315   1.000000
    9       -6.101067   1.000000
   10       -5.729421   1.000000
   11       -5.676024   1.000000
   12       -5.603445   1.000000
   13       -5.584701   1.000000
   14       -5.416994   1.000000
   15       -5.396400   1.000000
   16       -5.237641   1.000000
   17       -5.232018   1.000000
   18       -5.086556   1.000000
   19       -5.028923   1.000000
   20       -4.963854   1.000000
   21       -4.767724   1.000000
   22       -4.761977   1.000000
   23       -4.616037   1.000000
   24       -4.510538   1.000000
   25       -4.325591   1.000000
   26       -4.279870   1.000000
   27       -4.204750   1.000000
   28       -4.077555   1.000000
   29       -3.913819   1.000000
   30       -3.867455   1.000000
   31       -3.758305   1.000000
   32       -3.725447   1.000000
   33       -3.682513   1.000000
   34       -3.471313   1.000000
   35       -3.381810   1.000000
   36       -3.336036   1.000000
   37       -3.261834   1.000000
   38       -3.249607   1.000000
   39       -3.121304   1.000000
   40       -3.080680   1.000000
   41       -3.059139   1.000000
   42       -3.025922   1.000000
   43       -2.984901   1.000000
   44       -2.909308   1.000000
   45       -2.884153   1.000000
   46       -2.784602   1.000000
   47       -2.685998   1.000000
   48       -2.653130   1.000000
   49       -2.637909   1.000000
   50       -2.482618   1.000000
   51       -2.473763   1.000000
   52       -2.337504   1.000000
   53       -2.250095   1.000000
   54       -2.160369   1.000000
   55       -2.096876   1.000000
   56       -2.063339   1.000000
   57       -2.046686   1.000000
   58       -1.995032   1.000000
   59       -1.958283   1.000000
   60       -1.841130   1.000000
   61       -1.780698   1.000000
   62       -1.736835   1.000000
   63       -1.726334   1.000000
   64       -1.654703   1.000000
   65       -1.574460   1.000000
   66       -1.323784   1.000000
   67       -1.189854   1.000000
   68       -1.133280   1.000000
   69       -1.092970   1.000000
   70       -1.009664   1.000000
   71       -0.947354   1.000000
   72       -0.823408   1.000000
   73       -0.734828   1.000000
   74       -0.711929   1.000000
   75       -0.685438   1.000000
   76       -0.498526   1.000006
   77       -0.315787   1.001006
   78       -0.237929   1.004922
   79       -0.165880   1.015147
   80       -0.143672   1.019845
   81       -0.114782   1.026471
   82       -0.077055   1.033785
   83       -0.011505   1.026112
   84        0.037502   0.980469
   85        0.174527   0.567141
   86        0.213145   0.404651
   87        0.270248   0.190298
   88        0.343041   0.020046
   89        0.360166  -0.001453
   90        0.493264  -0.027020
   91        0.540743  -0.016364
   92        0.737811  -0.000377
   93        1.544374  -0.000000
   94        1.606606  -0.000000
   95        2.453680  -0.000000
   96        2.951651  -0.000000
   97        3.292044  -0.000000
   98        3.670471  -0.000000
   99        3.783314  -0.000000
  100        3.878677  -0.000000
  101        4.150826  -0.000000
  102        4.707105  -0.000000
  103        4.789429  -0.000000
  104        5.100238  -0.000000
 
 -0.4000000E+00  0.2000000E+00  0.0000000E+00  0.8000000E-01
    1      -23.770788   1.000000
    2      -10.086304   1.000000
    3       -7.482821   1.000000
    4       -6.950145   1.000000
    5       -6.866136   1.000000
    6       -6.581397   1.000000
    7       -6.580107   1.000000
    8       -5.968497   1.000000
    9       -5.952488   1.000000
   10       -5.844179   1.000000
   11       -5.387742   1.000000
   12       -5.154126   1.000000
   13       -5.136883   1.000000
   14       -5.066612   1.000000
   15       -5.000401   1.000000
   16       -4.887594   1.000000
   17       -4.837584   1.000000
   18       -4.799737   1.000000
   19       -4.717307   1.000000
   20       -4.525308   1.000000
   21       -4.505110   1.000000
   22       -4.456363   1.000000
   23       -4.435866   1.000000
   24       -4.385328   1.000000
   25       -4.287703   1.000000
   26       -4.158599   1.000000
   27       -4.114375   1.000000
   28       -4.109714   1.000000
   29       -4.079236   1.000000
   30       -4.015602   1.000000
   31       -3.953714   1.000000
   32       -3.926817   1.000000
   33       -3.893094   1.000000
   34       -3.692437   1.000000
   35       -3.658641   1.000000
   36       -3.564961   1.000000
   37       -3.478414   1.000000
   38       -3.425934   1.000000
   39       -3.374631   1.000000
   40       -3.305439   1.000000
   41       -3.278637   1.000000
   42       -3.257080   1.000000
   43       -3.165620   1.000000
   44       -3.141058   1.000000
   45       -3.107849   1.000000
   46       -3.009366   1.000000
   47       -2.993062   1.000000
   48       -2.842056   1.000000
   49       -2.773050   1.000000
   50       -2.746579   1.000000
   51       -2.620368   1.000000
   52       -2.576480   1.000000
   53       -2.490374   1.000000
   54       -2.451622   1.000000
   55       -2.429906   1.000000
   56       -2.338492   1.000000
   57       -2.239208   1.000000
   58       -2.006606   1.000000
   59       -1.910824   1.000000
   60       -1.856722   1.000000
   61       -1.844170   1.000000
   62       -1.730325   1.000000
   63       -1.690968   1.000000
   64       -1.621497   1.000000
   65       -1.527764   1.000000
   66       -1.459132   1.000000
   67       -1.345324   1.000000
   68       -1.293671   1.000000
   69       -1.226646   1.000000
   70       -1.151618   1.000000
   71       -1.057150   1.000000
   72       -0.976910   1.000000
   73       -0.938904   1.000000
   74       -0.874458   1.000000
   75       -0.813889   1.000000
   76       -0.753035   1.000000
   77       -0.628443   1.000000
   78       -0.537009   1.000002
   79       -0.509033   1.000004
   80       -0.457152   1.000023
   81       -0.368090   1.000284
   82       -0.186992   1.011312
   83       -0.103342   1.029011
   84       -0.083755   1.032777
   85       -0.035109   1.033811
   86        0.009924   1.011850
   87        0.121777   0.772460
   88        0.179695   0.545433
   89        0.281251   0.156198
   90        0.507036  -0.023856
   91        0.623695  -0.004506
   92        0.682909  -0.001368
   93        1.236990  -0.000000
   94        1.868192  -0.000000
   95        2.559649  -0.000000
   96        3.093802  -0.000000
   97        3.299313  -0.000000
   98        3.392955  -0.000000
   99        3.843425  -0.000000
  100        4.123548  -0.000000
  101        4.803102  -0.000000
  102        5.130445  -0.000000
  103        5.416020  -0.000000
  104        5.610513  -0.000000
 
 -0.2000000E+00  0.2000000E+00  0.0000000E+00  0.8000000E-01
    1      -23.770965   1.000000
    2      -10.096956   1.000000
    3       -7.980594   1.000000
    4       -7.426555   1.000000
    5       -6.696168   1.000000
    6       -6.586209   1.000000
    7       -6.584025   1.000000
    8       -6.122313   1.000000
    9       -6.101065   1.000000
   10       -5.729425   1.000000
   11       -5.676021   1.000000
   12       -5.603453   1.000000
   13       -5.584703   1.000000
   14       -5.417003   1.000000
   15       -5.396407   1.000000
   16       -5.237642   1.000000
   17       -5.232016   1.000000
   18       -5.086554   1.000000
   19       -5.028918   1.000000
   20       -4.963849   1.000000
   21       -4.767736   1.000000
   22       -4.761976   1.000000
   23       -4.616035   1.000000
   24       -4.510533   1.000000
   25       -4.325587   1.000000
   26       -4.279877   1.000000
   27       -4.204747   1.000000
   28       -4.077549   1.000000
   29       -3.913828   1.000000
   30       -3.867455   1.000000
   31       -3.758308   1.000000
   32       -3.725445   1.000000
   33       -3.682517   1.000000
   34       -3.471318   1.000000
   35       -3.381817   1.000000
   36       -3.336020   1.000000
   37       -3.261844   1.000000
   38       -3.249609   1.000000
   39       -3.121319   1.000000
   40       -3.080674   1.000000
   41       -3.059143   1.000000
   42       -3.025931   1.000000
   43       -2.984895   1.000000
   44       -2.909308   1.000000
   45       -2.884143   1.000000
   46       -2.784605   1.000000
   47       -2.686003   1.000000
   48       -2.653121   1.000000
   49       -2.637912   1.000000
   50       -2.482614   1.000000
   51       -2.473759   1.000000
   52       -2.337506   1.000000
   53       -2.250082   1.000000
   54       -2.160358   1.000000
   55       -2.096872   1.000000
   56       -2.063333   1.000000
   57       -2.046687   1.000000
   58       -1.995034   1.000000
   59       -1.958281   1.000000
   60       -1.841125   1.000000
   61       -1.780698   1.000000
   62       -1.736845   1.000000
   63       -1.726327   1.000000
   64       -1.654700   1.000000
   65       -1.574470   1.000000
   66       -1.323779   1.000000
   67       -1.189851   1.000000
   68       -1.133258   1.000000
   69       -1.092969   1.000000
   70       -1.009689   1.000000
   71       -0.947343   1.000000
   72       -0.823401   1.000000
   73       -0.734828   1.000000
   74       -0.711917   1.000000
   75       -0.685452   1.000000
   76       -0.498527   1.000006
   77       -0.315786   1.001006
   78       -0.237930   1.004922
   79       -0.165867   1.015150
   80       -0.143684   1.019843
   81       -0.114780   1.026472
   82       -0.077068   1.033783
   83       -0.011493   1.026106
   84        0.037509   0.980458
   85        0.174534   0.567110
   86        0.213136   0.404687
   87        0.270245   0.190309
   88        0.343045   0.020041
   89        0.360167  -0.001454
   90        0.493262  -0.027020
   91        0.540749  -0.016363
   92        0.737807  -0.000377
   93        1.544380  -0.000000
   94        1.606598  -0.000000
   95        2.453682  -0.000000
   96        2.951595  -0.000000
   97        3.292089  -0.000000
   98        3.670541  -0.000000
   99        3.783332  -0.000000
  100        3.878630  -0.000000
  101        4.150810  -0.000000
  102        4.707056  -0.000000
  103        4.789412  -0.000000
  104        5.100231  -0.000000
 
  0.0000000E+00  0.4000000E+00  0.0000000E+00  0.8000000E-01
    1      -23.771100   1.000000
    2      -10.092560   1.000000
    3       -7.736687   1.000000
    4       -7.400949   1.000000
    5       -6.669675   1.000000
    6       -6.584871   1.000000
    7       -6.584646   1.000000
    8       -6.460631   1.000000
    9       -5.896504   1.000000
   10       -5.572386   1.000000
   11       -5.468572   1.000000
   12       -5.459019   1.000000
   13       -5.398559   1.000000
   14       -5.366423   1.000000
   15       -5.332702   1.000000
   16       -5.278836   1.000000
   17       -5.005410   1.000000
   18       -4.943683   1.000000
   19       -4.917271   1.000000
   20       -4.835294   1.000000
   21       -4.736300   1.000000
   22       -4.674429   1.000000
   23       -4.406342   1.000000
   24       -4.349999   1.000000
   25       -4.224172   1.000000
   26       -4.208290   1.000000
   27       -4.201313   1.000000
   28       -4.093655   1.000000
   29       -3.989356   1.000000
   30       -3.941162   1.000000
   31       -3.849867   1.000000
   32       -3.762295   1.000000
   33       -3.614674   1.000000
   34       -3.560723   1.000000
   35       -3.509405   1.000000
   36       -3.426013   1.000000
   37       -3.323215   1.000000
   38       -3.321247   1.000000
   39       -3.242627   1.000000
   40       -3.164940   1.000000
   41       -3.123772   1.000000
   42       -3.005481   1.000000
   43       -2.975230   1.000000
   44       -2.866103   1.000000
   45       -2.749798   1.000000
   46       -2.718043   1.000000
   47       -2.668622   1.000000
   48       -2.662581   1.000000
   49       -2.632070   1.000000
   50       -2.516133   1.000000
   51       -2.505856   1.000000
   52       -2.430537   1.000000
   53       -2.357833   1.000000
   54       -2.330926   1.000000