       N       E                     dE             d eps       ncg     rms          rms(c)
DAV:   1     0.100903110191E+04    0.10090E+04   -0.60804E+04  2736   0.102E+03
DAV:   2    -0.224983816826E+02   -0.10315E+04   -0.95902E+03  3312   0.249E+02
DAV:   3    -0.102285639279E+03   -0.79787E+02   -0.73881E+02  3168   0.667E+01
DAV:   4    -0.105309258032E+03   -0.30236E+01   -0.29271E+01  3696   0.126E+01
DAV:   5    -0.105378426238E+03   -0.69168E-01   -0.68901E-01  3352   0.192E+00    0.409E+01
DAV:   6    -0.102883638224E+03    0.24948E+01   -0.25273E+01  3088   0.236E+01    0.336E+01
DAV:   7    -0.145842660868E+03   -0.42959E+02   -0.13459E+02  3880   0.670E+01    0.541E+01
DAV:   8    -0.118035376705E+03    0.27807E+02   -0.88069E+01  3728   0.376E+01    0.352E+01
DAV:   9    -0.107577160309E+03    0.10458E+02   -0.41279E+01  3288   0.345E+01    0.256E+01
DAV:  10    -0.996125917415E+02    0.79646E+01   -0.22644E+01  3152   0.253E+01    0.984E+00
DAV:  11    -0.996672714417E+02   -0.54680E-01   -0.58325E+00  3136   0.108E+01    0.111E+01
DAV:  12    -0.989162236005E+02    0.75105E+00   -0.32319E+00  3032   0.762E+00    0.571E+00
DAV:  13    -0.988282708871E+02    0.87953E-01   -0.31898E-01  3056   0.263E+00    0.447E+00
DAV:  14    -0.987981591977E+02    0.30112E-01   -0.54618E-02  3032   0.100E+00    0.384E+00
DAV:  15    -0.988539022937E+02   -0.55743E-01   -0.57236E-01  3032   0.291E+00    0.390E+00
DAV:  16    -0.987850532226E+02    0.68849E-01   -0.28038E-01  2928   0.202E+00    0.239E+00
DAV:  17    -0.987455535279E+02    0.39500E-01   -0.83694E-02  3000   0.116E+00    0.891E-01
DAV:  18    -0.987414915304E+02    0.40620E-02   -0.18545E-02  3016   0.521E-01    0.610E-01
DAV:  19    -0.987406045400E+02    0.88699E-03   -0.31346E-03  3048   0.208E-01    0.473E-01
DAV:  20    -0.987390076379E+02    0.15969E-02   -0.41080E-03  3072   0.324E-01    0.203E-01
DAV:  21    -0.987388248108E+02    0.18283E-03   -0.67946E-04  2704   0.103E-01    0.131E-01
DAV:  22    -0.987387973027E+02    0.27508E-04   -0.10482E-04  1728   0.441E-02
   1 F= -.98738797E+02 E0= -.98727834E+02  d E =-.328914E-01
