 vasp.5.4.4.18Apr17-6-g9f103f2a35 (build Aug 07 2018 15:16:41) complex          
  
 executed on             LinuxIFC date 2019.10.18  01:18:33
 running on   16 total cores
 distrk:  each k-point on   16 cores,    1 groups
 distr:  one band on NCORES_PER_BAND=   4 cores,    4 groups


--------------------------------------------------------------------------------------------------------


 INCAR:
 POTCAR:    PAW_PBE Pt 04Feb2005                  
 POTCAR:    PAW_PBE C 08Apr2002                   
 POTCAR:    PAW_PBE O 08Apr2002                   
 POTCAR:    PAW_PBE Pt 04Feb2005                  
   VRHFIN =Pt: s1d9                                                             
   LEXCH  = PE                                                                  
   EATOM  =   729.1176 eV,   53.5886 Ry                                         
                                                                                
   TITEL  = PAW_PBE Pt 04Feb2005                                                
   LULTRA =        F    use ultrasoft PP ?                                      
   IUNSCR =        1    unscreen: 0-lin 1-nonlin 2-no                           
   RPACOR =    2.330    partial core radius                                     
   POMASS =  195.080; ZVAL   =   10.000    mass and valenz                      
   RCORE  =    2.600    outmost cutoff radius                                   
   RWIGS  =    2.750; RWIGS  =    1.455    wigner-seitz radius (au A)           
   ENMAX  =  230.283; ENMIN  =  172.712 eV                                      
   ICORE  =        3    local potential                                         
   LCOR   =        T    correct aug charges                                     
   LPAW   =        T    paw PP                                                  
   EAUG   =  358.966                                                            
   DEXC   =    0.000                                                            
   RMAX   =    2.658    core radius for proj-oper                               
   RAUG   =    1.300    factor for augmentation sphere                          
   RDEP   =    2.761    radius for radial grids                                 
   RDEPT  =    2.203    core radius for aug-charge                              
                                                                                
   Atomic configuration                                                         
   16 entries                                                                   
     n  l   j            E        occ.                                          
     1  0  0.50    -78401.1885   2.0000                                         
     2  0  0.50    -13770.7750   2.0000                                         
     2  1  1.50    -11931.0468   6.0000                                         
     3  0  0.50     -3234.7234   2.0000                                         
     3  1  1.50     -2699.2216   6.0000                                         
     3  2  2.50     -2119.5714  10.0000                                         
     4  0  0.50      -695.1528   2.0000                                         
     4  1  1.50      -519.6034   6.0000                                         
     4  2  2.50      -306.6786  10.0000                                         
     4  3  3.50       -70.1041  14.0000                                         
     5  0  0.50      -101.7747   2.0000                                         
     5  1  1.50       -55.9873   6.0000                                         
     5  2  2.50        -6.1423   9.0000                                         
     6  0  0.50        -5.6573   1.0000                                         
     6  1  1.50        -6.8029   0.0000                                         
     5  3  2.50        -1.3606   0.0000                                         
   Description                                                                  
     l       E           TYP  RCUT    TYP  RCUT                                 
     2     -6.1423404     23  2.500                                             
     2     -7.5029230     23  2.500                                             
     0     -5.6573207     23  2.500                                             
     0      0.7416693     23  2.500                                             
     1     -2.7211652     23  2.600                                             
     1     20.4087390     23  2.600                                             
     3     -1.3605826     23  2.500                                             
  local pseudopotential read in
  partial core-charges read in
  partial kinetic energy density read in
  atomic valenz-charges read in
  non local Contribution for L=           2  read in
    real space projection operators read in
  non local Contribution for L=           2  read in
    real space projection operators read in
  non local Contribution for L=           0  read in
    real space projection operators read in
  non local Contribution for L=           0  read in
    real space projection operators read in
  non local Contribution for L=           1  read in
    real space projection operators read in
  non local Contribution for L=           1  read in
    real space projection operators read in
    PAW grid and wavefunctions read in
 
   number of l-projection  operators is LMAX  =           6
   number of lm-projection operators is LMMAX =          18
 
 POTCAR:    PAW_PBE C 08Apr2002                   
   VRHFIN =C: s2p2                                                              
   LEXCH  = PE                                                                  
   EATOM  =   147.1560 eV,   10.8157 Ry                                         
                                                                                
   TITEL  = PAW_PBE C 08Apr2002                                                 
   LULTRA =        F    use ultrasoft PP ?                                      
   IUNSCR =        1    unscreen: 0-lin 1-nonlin 2-no                           
   RPACOR =    1.200    partial core radius                                     
   POMASS =   12.011; ZVAL   =    4.000    mass and valenz                      
   RCORE  =    1.500    outmost cutoff radius                                   
   RWIGS  =    1.630; RWIGS  =    0.863    wigner-seitz radius (au A)           
   ENMAX  =  400.000; ENMIN  =  300.000 eV                                      
   ICORE  =        2    local potential                                         
   LCOR   =        T    correct aug charges                                     
   LPAW   =        T    paw PP                                                  
   EAUG   =  644.873                                                            
   DEXC   =    0.000                                                            
   RMAX   =    1.529    core radius for proj-oper                               
   RAUG   =    1.300    factor for augmentation sphere                          
   RDEP   =    1.501    radius for radial grids                                 
   RDEPT  =    1.300    core radius for aug-charge                              
                                                                                
   Atomic configuration                                                         
    4 entries                                                                   
     n  l   j            E        occ.                                          
     1  0  0.50      -273.3789   2.0000                                         
     2  0  0.50       -13.7508   2.0000                                         
     2  1  0.50        -5.2854   2.0000                                         
     3  2  1.50        -5.4423   0.0000                                         
   Description                                                                  
     l       E           TYP  RCUT    TYP  RCUT                                 
     0    -13.7508458     23  1.200                                             
     0     -8.2022199     23  1.200                                             
     1     -5.2854383     23  1.500                                             
     1     34.0145650     23  1.500                                             
     2     -5.4423304      7  1.500                                             
  local pseudopotential read in
  partial core-charges read in
  partial kinetic energy density read in
  atomic valenz-charges read in
  non local Contribution for L=           0  read in
    real space projection operators read in
  non local Contribution for L=           0  read in
    real space projection operators read in
  non local Contribution for L=           1  read in
    real space projection operators read in
  non local Contribution for L=           1  read in
    real space projection operators read in
    PAW grid and wavefunctions read in
 
   number of l-projection  operators is LMAX  =           4
   number of lm-projection operators is LMMAX =           8
 
 POTCAR:    PAW_PBE O 08Apr2002                   
   VRHFIN =O: s2p4                                                              
   LEXCH  = PE                                                                  
   EATOM  =   432.3788 eV,   31.7789 Ry                                         
                                                                                
   TITEL  = PAW_PBE O 08Apr2002                                                 
   LULTRA =        F    use ultrasoft PP ?                                      
   IUNSCR =        1    unscreen: 0-lin 1-nonlin 2-no                           
   RPACOR =    1.200    partial core radius                                     
   POMASS =   16.000; ZVAL   =    6.000    mass and valenz                      
   RCORE  =    1.520    outmost cutoff radius                                   
   RWIGS  =    1.550; RWIGS  =    0.820    wigner-seitz radius (au A)           
   ENMAX  =  400.000; ENMIN  =  300.000 eV                                      
   ICORE  =        2    local potential                                         
   LCOR   =        T    correct aug charges                                     
   LPAW   =        T    paw PP                                                  
   EAUG   =  605.392                                                            
   DEXC   =    0.000                                                            
   RMAX   =    1.553    core radius for proj-oper                               
   RAUG   =    1.300    factor for augmentation sphere                          
   RDEP   =    1.550    radius for radial grids                                 
   RDEPT  =    1.329    core radius for aug-charge                              
                                                                                
   Atomic configuration                                                         
    4 entries                                                                   
     n  l   j            E        occ.                                          
     1  0  0.50      -514.6923   2.0000                                         
     2  0  0.50       -23.9615   2.0000                                         
     2  1  0.50        -9.0305   4.0000                                         
     3  2  1.50        -9.5241   0.0000                                         
   Description                                                                  
     l       E           TYP  RCUT    TYP  RCUT                                 
     0    -23.9615318     23  1.200                                             
     0     -9.5240782     23  1.200                                             
     1     -9.0304911     23  1.520                                             
     1      8.1634956     23  1.520                                             
     2     -9.5240782      7  1.500                                             
  local pseudopotential read in
  partial core-charges read in
  partial kinetic energy density read in
  kinetic energy density of atom read in
  atomic valenz-charges read in
  non local Contribution for L=           0  read in
    real space projection operators read in
  non local Contribution for L=           0  read in
    real space projection operators read in
  non local Contribution for L=           1  read in
    real space projection operators read in
  non local Contribution for L=           1  read in
    real space projection operators read in
    PAW grid and wavefunctions read in
 
   number of l-projection  operators is LMAX  =           4
   number of lm-projection operators is LMMAX =           8
 
 Optimization of the real space projectors (new method)

 maximal supplied QI-value         = 14.36
 optimisation between [QCUT,QGAM] = [  9.48, 19.10] = [ 25.16,102.17] Ry 
 Optimized for a Real-space Cutoff    1.57 Angstroem

   l    n(q)    QCUT    max X(q) W(low)/X(q) W(high)/X(q)  e(spline) 
   2      8     9.479    66.195    0.35E-03    0.53E-04    0.87E-07
   2      8     9.479    64.643    0.35E-03    0.57E-04    0.91E-07
   0      9     9.479    95.520    0.50E-04    0.62E-04    0.81E-07
   0      9     9.479    63.403    0.49E-04    0.60E-04    0.78E-07
   1      8     9.479    19.961    0.10E-03    0.87E-04    0.11E-06
   1      8     9.479    13.289    0.88E-04    0.71E-04    0.97E-07
 Optimization of the real space projectors (new method)

 maximal supplied QI-value         = 25.13
 optimisation between [QCUT,QGAM] = [  9.55, 19.10] = [ 25.54,102.17] Ry 
 Optimized for a Real-space Cutoff    1.39 Angstroem

   l    n(q)    QCUT    max X(q) W(low)/X(q) W(high)/X(q)  e(spline) 
   0      8     9.551   115.676    0.39E-03    0.54E-03    0.29E-06
   0      8     9.551    87.132    0.39E-03    0.54E-03    0.28E-06
   1      7     9.551     4.429    0.35E-03    0.51E-04    0.29E-06
   1      7     9.551     2.733    0.22E-03    0.42E-04    0.31E-06
 Optimization of the real space projectors (new method)

 maximal supplied QI-value         = 24.76
 optimisation between [QCUT,QGAM] = [  9.41, 19.06] = [ 24.78,101.75] Ry 
 Optimized for a Real-space Cutoff    1.48 Angstroem

   l    n(q)    QCUT    max X(q) W(low)/X(q) W(high)/X(q)  e(spline) 
   0      8     9.407    20.381    0.17E-03    0.13E-03    0.41E-06
   0      8     9.407    15.268    0.19E-03    0.15E-03    0.42E-06
   1      8     9.407     5.946    0.36E-03    0.29E-03    0.38E-06
   1      8     9.407     5.382    0.31E-03    0.24E-03    0.34E-06

 ----------------------------------------------------------------------------- 
|                                                                             |
|  ADVICE TO THIS USER RUNNING 'VASP/VAMP'   (HEAR YOUR MASTER'S VOICE ...):  |
|                                                                             |
|      You enforced a specific xc-type in the INCAR file,                     |
|      a different type was found on the POTCAR file                          |
|          I HOPE YOU KNOW, WHAT YOU ARE  DOING                               |
|                                                                             |
 ----------------------------------------------------------------------------- 

  PAW_PBE Pt 04Feb2005                  :
 energy of atom  1       EATOM= -729.1176
 kinetic energy error for atom=    0.0144 (will be added to EATOM!!)
  PAW_PBE C 08Apr2002                   :
 energy of atom  2       EATOM= -147.1560
 kinetic energy error for atom=    0.0854 (will be added to EATOM!!)
  PAW_PBE O 08Apr2002                   :
 energy of atom  3       EATOM= -432.3788
 kinetic energy error for atom=    0.3782 (will be added to EATOM!!)
 
 
 POSCAR: Pt  C  O                                
  positions in cartesian coordinates
  No initial velocities read in
 exchange correlation table for  LEXCH =        9
   RHO(1)=    0.500       N(1)  =     2000
   RHO(2)=  100.500       N(2)  =     4000
 


--------------------------------------------------------------------------------------------------------


 ion  position               nearest neighbor table
   1  0.000  0.000  0.372-   5 2.82   6 2.82   7 2.82   3 2.82   3 2.82   4 2.82   4 2.82   2 2.82
                             2 2.82
   2  0.500  0.000  0.372-   6 2.82   5 2.82   8 2.82   4 2.82   3 2.82   4 2.82   3 2.82   1 2.82
                             1 2.82
   3  0.000  0.500  0.372-   7 2.82   5 2.82   8 2.82   1 2.82   1 2.82   2 2.82   2 2.82   4 2.82
                             4 2.82
   4  0.500  0.500  0.372-   8 2.82   7 2.82   6 2.82   2 2.82   1 2.82   2 2.82   1 2.82   3 2.82
                             3 2.82
   5  0.167  0.167  0.457-  10 2.79  12 2.81   9 2.81   1 2.82   3 2.82   2 2.82   7 2.82   7 2.82
                             8 2.82   8 2.82   6 2.82   6 2.82
   6  0.667  0.167  0.457-  10 2.79   9 2.81  11 2.81   2 2.82   4 2.82   1 2.82   8 2.82   7 2.82
                             8 2.82   7 2.82   5 2.82   5 2.82
   7  0.167  0.667  0.457-  10 2.79  12 2.81  11 2.81   3 2.82   4 2.82   1 2.82   5 2.82   5 2.82
                             6 2.82   6 2.82   8 2.82   8 2.82
   8  0.667  0.667  0.457-   4 2.82   3 2.82   2 2.82   6 2.82   5 2.82   6 2.82   5 2.82   7 2.82
                             7 2.82  12 2.83   9 2.83  11 2.83
   9  0.836  0.328  0.543-  12 2.78  11 2.78  16 2.78  15 2.78   5 2.81   6 2.81  10 2.82  10 2.82
                             8 2.83  11 2.87  12 2.87  13 2.98
  10  0.333  0.333  0.541-   5 2.79   7 2.79   6 2.79  16 2.81  14 2.81  15 2.81   9 2.82  12 2.82
                            11 2.82  11 2.82  12 2.82   9 2.82
  11  0.836  0.836  0.543-  12 2.78   9 2.78  14 2.78  15 2.78   6 2.81   7 2.81  10 2.82  10 2.82
                             8 2.83   9 2.87  12 2.87  13 2.98
  12  0.328  0.836  0.543-   9 2.78  11 2.78  16 2.78  14 2.78   5 2.81   7 2.81  10 2.82  10 2.82
                             8 2.83  11 2.87   9 2.87  13 2.98
  13  0.000  1.000  0.636-  17 1.85  15 2.83  15 2.83  14 2.83  14 2.83  16 2.83  16 2.83  11 2.98
                            12 2.98   9 2.98
  14  0.500  0.999  0.626-  11 2.78  12 2.78  10 2.81  15 2.82  16 2.82  16 2.83  15 2.83  13 2.83
                            13 2.83
  15  0.999  0.500  0.626-  11 2.78   9 2.78  10 2.81  14 2.82  16 2.82  16 2.83  14 2.83  13 2.83
                            13 2.83
  16  0.500  0.500  0.626-   9 2.78  12 2.78  10 2.81  14 2.82  15 2.82  15 2.83  14 2.83  13 2.83
                            13 2.83
  17  1.000  1.000  0.705-  18 1.16  13 1.85
  18  1.000  1.000  0.748-  17 1.16
 

IMPORTANT INFORMATION: All symmetrisations will be switched off!
NOSYMM: (Re-)initialisation of all symmetry stuff for point group C_1.

 
 
 KPOINTS: KPOINTS created by Atomic Simulation Env

Automatic generation of k-mesh.
Space group operators:
 irot       det(A)        alpha          n_x          n_y          n_z        tau_x        tau_y        tau_z
    1     1.000000     0.000000     1.000000     0.000000     0.000000     0.000000     0.000000     0.000000
 
 Subroutine IBZKPT returns following result:
 ===========================================
 
 Found     13 irreducible k-points:
 
 Following reciprocal coordinates:
            Coordinates               Weight
  0.000000  0.000000  0.000000      1.000000
  0.200000  0.000000  0.000000      2.000000
  0.400000  0.000000  0.000000      2.000000
  0.000000  0.200000  0.000000      2.000000
  0.200000  0.200000  0.000000      2.000000
  0.400000  0.200000  0.000000      2.000000
 -0.400000  0.200000  0.000000      2.000000
 -0.200000  0.200000  0.000000      2.000000
  0.000000  0.400000  0.000000      2.000000
  0.200000  0.400000  0.000000      2.000000
  0.400000  0.400000  0.000000      2.000000
 -0.400000  0.400000  0.000000      2.000000
 -0.200000  0.400000  0.000000      2.000000
 
 Following cartesian coordinates:
            Coordinates               Weight
  0.000000  0.000000  0.000000      1.000000
  0.035437 -0.020459  0.000000      2.000000
  0.070874 -0.040919  0.000000      2.000000
  0.000000  0.040919  0.000000      2.000000
  0.035437  0.020459  0.000000      2.000000
  0.070874  0.000000  0.000000      2.000000
 -0.070874  0.081838  0.000000      2.000000
 -0.035437  0.061378  0.000000      2.000000
  0.000000  0.081838  0.000000      2.000000
  0.035437  0.061378  0.000000      2.000000
  0.070874  0.040919  0.000000      2.000000
 -0.070874  0.122757  0.000000      2.000000
 -0.035437  0.102297  0.000000      2.000000
 


--------------------------------------------------------------------------------------------------------




 Dimension of arrays:
   k-points           NKPTS =     13   k-points in BZ     NKDIM =     13   number of bands    NBANDS=    104
   number of dos      NEDOS =    301   number of ions     NIONS =     18
   non local maximal  LDIM  =      6   non local SUM 2l+1 LMDIM =     18
   total plane-waves  NPLWV =  98784
   max r-space proj   IRMAX =   2189   max aug-charges    IRDMAX=   8258
   dimension x,y,z NGX =    28 NGY =   28 NGZ =  126
   dimension x,y,z NGXF=    56 NGYF=   56 NGZF=  252
   support grid    NGXF=    56 NGYF=   56 NGZF=  252
   ions per type =              16   1   1
   NGX,Y,Z   is equivalent  to a cutoff of   8.25,  8.25,  7.78 a.u.
   NGXF,Y,Z  is equivalent  to a cutoff of  16.50, 16.50, 15.57 a.u.

 SYSTEM =  unknown system                          
 POSCAR =  Pt  C  O                                

 Startparameter for this run:
   NWRITE =      2    write-flag & timer
   PREC   = normal    normal or accurate (medium, high low for compatibility)
   ISTART =      0    job   : 0-new  1-cont  2-samecut
   ICHARG =      2    charge: 1-file 2-atom 10-const
   ISPIN  =      1    spin polarized calculation?
   LNONCOLLINEAR =      F non collinear calculations
   LSORBIT =      F    spin-orbit coupling
   INIWAV =      1    electr: 0-lowe 1-rand  2-diag
   LASPH  =      F    aspherical Exc in radial PAW
   METAGGA=      F    non-selfconsistent MetaGGA calc.

 Electronic Relaxation 1
   ENCUT  =  350.0 eV  25.72 Ry    5.07 a.u.   8.61  8.61 41.05*2*pi/ulx,y,z
   ENINI  =  350.0     initial cutoff
   ENAUG  =  644.9 eV  augmentation charge cutoff
   NELM   =     60;   NELMIN=  2; NELMDL= -5     # of ELM steps 
   EDIFF  = 0.1E-03   stopping-criterion for ELM
   LREAL  =      T    real-space projection
   NLSPLINE    = F    spline interpolate recip. space projectors
   LCOMPAT=      F    compatible to vasp.4.4
   GGA_COMPAT  = T    GGA compatible to vasp.4.4-vasp.4.6
   LMAXPAW     = -100 max onsite density
   LMAXMIX     =    2 max onsite mixed and CHGCAR
   VOSKOWN=      0    Vosko Wilk Nusair interpolation
   ROPT   =   -0.00050  -0.00050  -0.00050
 Ionic relaxation
   EDIFFG = -.3E-01   stopping-criterion for IOM
   NSW    =      0    number of steps for IOM
   NBLOCK =      1;   KBLOCK =      1    inner block; outer block 
   IBRION =     -1    ionic relax: 0-MD 1-quasi-New 2-CG
   NFREE  =      1    steps in history (QN), initial steepest desc. (CG)
   ISIF   =      0    stress and relaxation
   IWAVPR =     10    prediction:  0-non 1-charg 2-wave 3-comb
   ISYM   =      0    0-nonsym 1-usesym 2-fastsym
   LCORR  =      T    Harris-Foulkes like correction to forces

   POTIM  = 0.5000    time-step for ionic-motion
   TEIN   =    0.0    initial temperature
   TEBEG  =    0.0;   TEEND  =   0.0 temperature during run
   SMASS  =  -3.00    Nose mass-parameter (am)
   estimated Nose-frequenzy (Omega)   =  0.10E-29 period in steps =****** mass=  -0.728E-27a.u.
   SCALEE = 1.0000    scale energy and forces
   NPACO  =    256;   APACO  = 16.0  distance and # of slots for P.C.
   PSTRESS=    0.0 pullay stress

  Mass of Ions in am
   POMASS = 195.08 12.01 16.00
  Ionic Valenz
   ZVAL   =  10.00  4.00  6.00
  Atomic Wigner-Seitz radii
   RWIGS  =   1.50  0.80  0.80
  virtual crystal weights 
   VCA    =   1.00  1.00  1.00
   NELECT =     170.0000    total number of electrons
   NUPDOWN=      -1.0000    fix difference up-down

 DOS related values:
   EMIN   =  10.00;   EMAX   =-10.00  energy-range for DOS
   EFERMI =   0.00
   ISMEAR =     1;   SIGMA  =   0.20  broadening in eV -4-tet -1-fermi 0-gaus

 Electronic relaxation 2 (details)
   IALGO  =     38    algorithm
   LDIAG  =      T    sub-space diagonalisation (order eigenvalues)
   LSUBROT=      F    optimize rotation matrix (better conditioning)
   TURBO    =      0    0=normal 1=particle mesh
   IRESTART =      0    0=no restart 2=restart with 2 vectors
   NREBOOT  =      0    no. of reboots
   NMIN     =      0    reboot dimension
   EREF     =   0.00    reference energy to select bands
   IMIX   =      4    mixing-type and parameters
     AMIX     =   0.40;   BMIX     =  1.00
     AMIX_MAG =   1.60;   BMIX_MAG =  1.00
     AMIN     =   0.10
     WC   =   100.;   INIMIX=   1;  MIXPRE=   1;  MAXMIX= -45

 Intra band minimization:
   WEIMIN = 0.0000     energy-eigenvalue tresh-hold
   EBREAK =  0.24E-06  absolut break condition
   DEPER  =   0.30     relativ break condition  

   TIME   =   0.40     timestep for ELM

  volume/ion in A,a.u.               =      41.24       278.33
  Fermi-wavevector in a.u.,A,eV,Ry     =   1.001569  1.892691 13.648550  1.003140
  Thomas-Fermi vector in A             =   2.133999
 
 Write flags
   LWAVE        =      F    write WAVECAR
   LDOWNSAMPLE  =      F    k-point downsampling of WAVECAR
   LCHARG       =      F    write CHGCAR
   LVTOT        =      F    write LOCPOT, total local potential
   LVHAR        =      F    write LOCPOT, Hartree potential only
   LELF         =      F    write electronic localiz. function (ELF)
   LORBIT       =      0    0 simple, 1 ext, 2 COOP (PROOUT), +10 PAW based schemes


 Dipole corrections
   LMONO  =      F    monopole corrections only (constant potential shift)
   LDIPOL =      F    correct potential (dipole corrections)
   IDIPOL =      0    1-x, 2-y, 3-z, 4-all directions 
   EPSILON=  1.0000000 bulk dielectric constant

 Exchange correlation treatment:
   GGA     =    RP    GGA type
   LEXCH   =     9    internal setting for exchange type
   VOSKOWN=      0    Vosko Wilk Nusair interpolation
   LHFCALC =     F    Hartree Fock is set to
   LHFONE  =     F    Hartree Fock one center treatment
   AEXX    =    0.0000 exact exchange contribution

 Linear response parameters
   LEPSILON=     F    determine dielectric tensor
   LRPA    =     F    only Hartree local field effects (RPA)
   LNABLA  =     F    use nabla operator in PAW spheres
   LVEL    =     F    velocity operator in full k-point grid
   LINTERFAST=   F  fast interpolation
   KINTER  =     0    interpolate to denser k-point grid
   CSHIFT  =0.1000    complex shift for real part using Kramers Kronig
   OMEGAMAX=  -1.0    maximum frequency
   DEG_THRESHOLD= 0.2000000E-02 threshold for treating states as degnerate
   RTIME   =   -0.100 relaxation time in fs
  (WPLASMAI=    0.000 imaginary part of plasma frequency in eV, 0.658/RTIME)
   DFIELD  = 0.0000000 0.0000000 0.0000000 field for delta impulse in time
 
 Orbital magnetization related:
   ORBITALMAG=     F  switch on orbital magnetization
   LCHIMAG   =     F  perturbation theory with respect to B field
   DQ        =  0.001000  dq finite difference perturbation B field
   LLRAUG    =     F  two centre corrections for induced B field



--------------------------------------------------------------------------------------------------------


 Static calculation
 charge density and potential will be updated during run
 non-spin polarized calculation
 Variant of blocked Davidson
 Davidson routine will perform the subspace rotation
 perform sub-space diagonalisation
    after iterative eigenvector-optimisation
 modified Broyden-mixing scheme, WC =      100.0
 initial mixing is a Kerker type mixing with AMIX =  0.4000 and BMIX =      1.0000
 Hartree-type preconditioning will be used
 using additional bands           19
 real space projection scheme for non local part
 use partial core corrections
 calculate Harris-corrections to forces 
   (improved forces if not selfconsistent)
 use gradient corrections 
 use of overlap-Matrix (Vanderbilt PP)
 Methfessel and Paxton  Order N= 1 SIGMA  =   0.20


--------------------------------------------------------------------------------------------------------


  energy-cutoff  :      350.00
  volume of cell :      742.39
      direct lattice vectors                 reciprocal lattice vectors
     5.643844236  0.000000000  0.000000000     0.177184195 -0.102297343  0.000000000
     2.821922118  4.887712483  0.000000000     0.000000000  0.204594686  0.000000000
     0.000000000  0.000000000 26.912269283     0.000000000  0.000000000  0.037157773

  length of vectors
     5.643844236  5.643844236 26.912269283     0.204594686  0.204594686  0.037157773


 
 k-points in units of 2pi/SCALE and weight: KPOINTS created by Atomic Simulation Env
   0.00000000  0.00000000  0.00000000       0.040
   0.03543684 -0.02045947  0.00000000       0.080
   0.07087368 -0.04091894  0.00000000       0.080
   0.00000000  0.04091894  0.00000000       0.080
   0.03543684  0.02045947  0.00000000       0.080
   0.07087368  0.00000000  0.00000000       0.080
  -0.07087368  0.08183787  0.00000000       0.080
  -0.03543684  0.06137841  0.00000000       0.080
   0.00000000  0.08183787  0.00000000       0.080
   0.03543684  0.06137841  0.00000000       0.080
   0.07087368  0.04091894  0.00000000       0.080
  -0.07087368  0.12275681  0.00000000       0.080
  -0.03543684  0.10229734  0.00000000       0.080
 
 k-points in reciprocal lattice and weights: KPOINTS created by Atomic Simulation Env
   0.00000000  0.00000000  0.00000000       0.040
   0.20000000  0.00000000  0.00000000       0.080
   0.40000000  0.00000000  0.00000000       0.080
   0.00000000  0.20000000  0.00000000       0.080
   0.20000000  0.20000000  0.00000000       0.080
   0.40000000  0.20000000  0.00000000       0.080
  -0.40000000  0.20000000  0.00000000       0.080
  -0.20000000  0.20000000  0.00000000       0.080
   0.00000000  0.40000000  0.00000000       0.080
   0.20000000  0.40000000  0.00000000       0.080
   0.40000000  0.40000000  0.00000000       0.080
  -0.40000000  0.40000000  0.00000000       0.080
  -0.20000000  0.40000000  0.00000000       0.080
 
 position of ions in fractional coordinates (direct lattice) 
   0.00000000  0.00000000  0.37157773
   0.50000000  0.00000000  0.37157773
   0.00000000  0.50000000  0.37157773
   0.50000000  0.50000000  0.37157773
   0.16666667  0.16666667  0.45719258
   0.66666667  0.16666667  0.45719258
   0.16666667  0.66666667  0.45719258
   0.66666667  0.66666667  0.45719258
   0.83591546  0.32816997  0.54264944
   0.33333290  0.33333339  0.54133566
   0.83591508  0.83591509  0.54264960
   0.32816966  0.83591564  0.54264937
   0.00000012  0.99999965  0.63611904
   0.50032901  0.99934173  0.62616445
   0.99934223  0.50032857  0.62616475
   0.50032879  0.50032845  0.62616366
   0.99999984  0.99999946  0.70481769
   0.99999958  0.99999954  0.74805389
 
 position of ions in cartesian coordinates  (Angst):
   0.00000000  0.00000000 10.00000000
   2.82192212  0.00000000 10.00000000
   1.41096106  2.44385624 10.00000000
   4.23288318  2.44385624 10.00000000
   1.41096106  0.81461875 12.30408976
   4.23288318  0.81461875 12.30408976
   2.82192212  3.25847499 12.30408976
   5.64384424  3.25847499 12.30408976
   5.64384677  1.60400046 14.60392788
   2.82191984  1.62923778 14.56857100
   7.07666178  4.08571262 14.60393218
   4.21102725  4.08571529 14.60392599
   2.82192181  4.88771077 17.11940679
   5.64384353  4.88449506 16.85150632
   7.05202014  2.44546221 16.85151425
   4.23566567  2.44546159 16.85148496
   8.46576389  4.88770983 18.96824341
   8.46576268  4.88771021 20.13182760
 


--------------------------------------------------------------------------------------------------------


 k-point  1 :   0.0000 0.0000 0.0000  plane waves:   11069
 k-point  2 :   0.2000 0.0000 0.0000  plane waves:   11057
 k-point  3 :   0.4000 0.0000 0.0000  plane waves:   11035
 k-point  4 :   0.0000 0.2000 0.0000  plane waves:   11057
 k-point  5 :   0.2000 0.2000 0.0000  plane waves:   11057
 k-point  6 :   0.4000 0.2000 0.0000  plane waves:   11021
 k-point  7 :  -0.4000 0.2000 0.0000  plane waves:   11028
 k-point  8 :  -0.2000 0.2000 0.0000  plane waves:   11021
 k-point  9 :   0.0000 0.4000 0.0000  plane waves:   11035
 k-point 10 :   0.2000 0.4000 0.0000  plane waves:   11021
 k-point 11 :   0.4000 0.4000 0.0000  plane waves:   11035
 k-point 12 :  -0.4000 0.4000 0.0000  plane waves:   11028
 k-point 13 :  -0.2000 0.4000 0.0000  plane waves:   11028

 maximum and minimum number of plane-waves per node :      2799     2729

 maximum number of plane-waves:     11069
 maximum index in each direction: 
   IXMAX=    9   IYMAX=    8   IZMAX=   41
   IXMIN=   -9   IYMIN=   -9   IZMIN=  -41


 real space projection operators:
  total allocation   :       4895.11 KBytes
  max/ min on nodes  :       1231.27       1216.97


 parallel 3D FFT for wavefunctions:
    minimum data exchange during FFTs selected (reduces bandwidth)
 parallel 3D FFT for charge:
    minimum data exchange during FFTs selected (reduces bandwidth)


 total amount of memory used by VASP MPI-rank0    54955. kBytes
=======================================================================

   base      :      30000. kBytes
   nonlr-proj:       2172. kBytes
   fftplans  :       2593. kBytes
   grid      :       4625. kBytes
   one-center:         77. kBytes
   wavefun   :      15488. kBytes
 
     INWAV:  cpu time    0.0000: real time    0.0000
 Broyden mixing: mesh for mixing (old mesh)
   NGX = 17   NGY = 17   NGZ = 83
  (NGX  = 56   NGY  = 56   NGZ  =252)
  gives a total of  23987 points

 initial charge density was supplied:
 charge density of overlapping atoms calculated
 number of electron     170.0000000 magnetization 
 keeping initial charge density in first step


--------------------------------------------------------------------------------------------------------


 Maximum index for non-local projection operator          529
 Maximum index for augmentation-charges          704 (set IRDMAX)


--------------------------------------------------------------------------------------------------------


 First call to EWALD:  gamma=   0.196
 Maximum number of real-space cells 5x 5x 1
 Maximum number of reciprocal cells 2x 2x 7

    FEWALD:  cpu time    0.0024: real time    0.0024


--------------------------------------- Iteration      1(   1)  ---------------------------------------


    POTLOK:  cpu time    0.0943: real time    0.0982
    SETDIJ:  cpu time    0.0078: real time    0.0078
     EDDAV:  cpu time    6.2012: real time    6.2011
       DOS:  cpu time    0.0022: real time    0.0035
    --------------------------------------------
      LOOP:  cpu time    6.3055: real time    6.3105

 eigenvalue-minimisations  :  2736
 total energy-change (2. order) : 0.1009031E+04  (-0.6080379E+04)
 number of electron     170.0000000 magnetization 
 augmentation part      170.0000000 magnetization 

 Free energy of the ion-electron system (eV)
  ---------------------------------------------------
  alpha Z        PSCENC =       358.28533891
  Ewald energy   TEWEN  =     71156.15325188
  -Hartree energ DENC   =    -83911.25843578
  -exchange      EXHF   =         0.00000000
  -V(xc)+E(xc)   XCENC  =        87.97201904
  PAW double counting   =     11602.90403888   -11137.02028253
  entropy T*S    EENTRO =         0.00920173
  eigenvalues    EBANDS =       619.91029732
  atomic energy  EATOM  =     12232.07567246
  Solvation  Ediel_sol  =         0.00000000
  ---------------------------------------------------
  free energy    TOTEN  =      1009.03110191 eV

  energy without entropy =     1009.02190018  energy(sigma->0) =     1009.02803467


--------------------------------------------------------------------------------------------------------




--------------------------------------- Iteration      1(   2)  ---------------------------------------


     EDDAV:  cpu time    6.4812: real time    6.4815
       DOS:  cpu time    0.0022: real time    0.0034
    --------------------------------------------
      LOOP:  cpu time    6.4835: real time    6.4849

 eigenvalue-minimisations  :  3312
 total energy-change (2. order) :-0.1031529E+04  (-0.9590163E+03)
 number of electron     170.0000000 magnetization 
 augmentation part      170.0000000 magnetization 

 Free energy of the ion-electron system (eV)
  ---------------------------------------------------
  alpha Z        PSCENC =       358.28533891
  Ewald energy   TEWEN  =     71156.15325188
  -Hartree energ DENC   =    -83911.25843578
  -exchange      EXHF   =         0.00000000
  -V(xc)+E(xc)   XCENC  =        87.97201904
  PAW double counting   =     11602.90403888   -11137.02028253
  entropy T*S    EENTRO =         0.00773011
  eigenvalues    EBANDS =      -411.61771466
  atomic energy  EATOM  =     12232.07567246
  Solvation  Ediel_sol  =         0.00000000
  ---------------------------------------------------
  free energy    TOTEN  =       -22.49838168 eV

  energy without entropy =      -22.50611179  energy(sigma->0) =      -22.50095839


--------------------------------------------------------------------------------------------------------




--------------------------------------- Iteration      1(   3)  ---------------------------------------


     EDDAV:  cpu time    7.0188: real time    7.0190
       DOS:  cpu time    0.0020: real time    0.0020
    --------------------------------------------
      LOOP:  cpu time    7.0208: real time    7.0210

 eigenvalue-minimisations  :  3168
 total energy-change (2. order) :-0.7978726E+02  (-0.7388069E+02)
 number of electron     170.0000000 magnetization 
 augmentation part      170.0000000 magnetization 

 Free energy of the ion-electron system (eV)
  ---------------------------------------------------
  alpha Z        PSCENC =       358.28533891
  Ewald energy   TEWEN  =     71156.15325188
  -Hartree energ DENC   =    -83911.25843578
  -exchange      EXHF   =         0.00000000
  -V(xc)+E(xc)   XCENC  =        87.97201904
  PAW double counting   =     11602.90403888   -11137.02028253
  entropy T*S    EENTRO =        -0.05343853
  eigenvalues    EBANDS =      -491.34380362
  atomic energy  EATOM  =     12232.07567246
  Solvation  Ediel_sol  =         0.00000000
  ---------------------------------------------------
  free energy    TOTEN  =      -102.28563928 eV

  energy without entropy =     -102.23220075  energy(sigma->0) =     -102.26782644


--------------------------------------------------------------------------------------------------------




--------------------------------------- Iteration      1(   4)  ---------------------------------------


     EDDAV:  cpu time    8.1484: real time    8.1486
       DOS:  cpu time    0.0023: real time    0.0035
    --------------------------------------------
      LOOP:  cpu time    8.1507: real time    8.1521

 eigenvalue-minimisations  :  3696
 total energy-change (2. order) :-0.3023619E+01  (-0.2927115E+01)
 number of electron     170.0000000 magnetization 
 augmentation part      170.0000000 magnetization 

 Free energy of the ion-electron system (eV)
  ---------------------------------------------------
  alpha Z        PSCENC =       358.28533891
  Ewald energy   TEWEN  =     71156.15325188
  -Hartree energ DENC   =    -83911.25843578
  -exchange      EXHF   =         0.00000000
  -V(xc)+E(xc)   XCENC  =        87.97201904
  PAW double counting   =     11602.90403888   -11137.02028253
  entropy T*S    EENTRO =        -0.06133132
  eigenvalues    EBANDS =      -494.35952958
  atomic energy  EATOM  =     12232.07567246
  Solvation  Ediel_sol  =         0.00000000
  ---------------------------------------------------
  free energy    TOTEN  =      -105.30925803 eV

  energy without entropy =     -105.24792671  energy(sigma->0) =     -105.28881426


--------------------------------------------------------------------------------------------------------




--------------------------------------- Iteration      1(   5)  ---------------------------------------


     EDDAV:  cpu time    7.2449: real time    7.2448
       DOS:  cpu time    0.0023: real time    0.0023
    CHARGE:  cpu time    0.3683: real time    0.3683
    MIXING:  cpu time    0.0118: real time    0.0118
    --------------------------------------------
      LOOP:  cpu time    7.6273: real time    7.6273

 eigenvalue-minimisations  :  3352
 total energy-change (2. order) :-0.6916821E-01  (-0.6890084E-01)
 number of electron     170.0000039 magnetization 
 augmentation part       47.6095887 magnetization 

 Broyden mixing:
  rms(total) = 0.40915E+01    rms(broyden)= 0.40912E+01
  rms(prec ) = 0.41409E+01
  weight for this iteration     100.00

 Free energy of the ion-electron system (eV)
  ---------------------------------------------------
  alpha Z        PSCENC =       358.28533891
  Ewald energy   TEWEN  =     71156.15325188
  -Hartree energ DENC   =    -83911.25843578
  -exchange      EXHF   =         0.00000000
  -V(xc)+E(xc)   XCENC  =        87.97201904
  PAW double counting   =     11602.90403888   -11137.02028253
  entropy T*S    EENTRO =        -0.06127697
  eigenvalues    EBANDS =      -494.42875213
  atomic energy  EATOM  =     12232.07567246
  Solvation  Ediel_sol  =         0.00000000
  ---------------------------------------------------
  free energy    TOTEN  =      -105.37842624 eV

  energy without entropy =     -105.31714927  energy(sigma->0) =     -105.35800058


--------------------------------------------------------------------------------------------------------




--------------------------------------- Iteration      1(   6)  ---------------------------------------


    POTLOK:  cpu time    0.0615: real time    0.0616
    SETDIJ:  cpu time    0.0070: real time    0.0070
     EDDAV:  cpu time    6.9455: real time    6.9451
       DOS:  cpu time    0.0021: real time    0.0032
    CHARGE:  cpu time    0.3527: real time    0.3527
    MIXING:  cpu time    0.0124: real time    0.0124
    --------------------------------------------
      LOOP:  cpu time    7.3813: real time    7.3821

 eigenvalue-minimisations  :  3088
 total energy-change (2. order) : 0.2494788E+01  (-0.2527256E+01)
 number of electron     170.0000025 magnetization 
 augmentation part       50.1284026 magnetization 

 Broyden mixing:
  rms(total) = 0.33615E+01    rms(broyden)= 0.33613E+01
  rms(prec ) = 0.37968E+01
  weight for this iteration     100.00

 eigenvalues of (default mixing * dielectric matrix)
  average eigenvalue GAMMA=   0.9023
  0.9023

 Free energy of the ion-electron system (eV)
  ---------------------------------------------------
  alpha Z        PSCENC =       358.28533891
  Ewald energy   TEWEN  =     71156.15325188
  -Hartree energ DENC   =    -83726.45494932
  -exchange      EXHF   =         0.00000000
  -V(xc)+E(xc)   XCENC  =        85.48265628
  PAW double counting   =     12866.78093325   -12423.28492252
  entropy T*S    EENTRO =         0.00327404
  eigenvalues    EBANDS =      -651.92489320
  atomic energy  EATOM  =     12232.07567246
  Solvation  Ediel_sol  =         0.00000000
  ---------------------------------------------------
  free energy    TOTEN  =      -102.88363822 eV

  energy without entropy =     -102.88691226  energy(sigma->0) =     -102.88472957


--------------------------------------------------------------------------------------------------------




--------------------------------------- Iteration      1(   7)  ---------------------------------------


    POTLOK:  cpu time    0.0619: real time    0.0629
    SETDIJ:  cpu time    0.0149: real time    0.0149
     EDDAV:  cpu time    8.1227: real time    8.1222
       DOS:  cpu time    0.0024: real time    0.0024
    CHARGE:  cpu time    0.4593: real time    0.4593
    MIXING:  cpu time    0.0044: real time    0.0044
    --------------------------------------------
      LOOP:  cpu time    8.6656: real time    8.6659

 eigenvalue-minimisations  :  3880
 total energy-change (2. order) :-0.4295902E+02  (-0.1345935E+02)
 number of electron     170.0000023 magnetization 
 augmentation part       48.5466749 magnetization 

 Broyden mixing:
  rms(total) = 0.54102E+01    rms(broyden)= 0.54101E+01
  rms(prec ) = 0.72782E+01
  weight for this iteration     100.00

 eigenvalues of (default mixing * dielectric matrix)
  average eigenvalue GAMMA=   0.8100
  1.4625  0.1575

 Free energy of the ion-electron system (eV)
  ---------------------------------------------------
  alpha Z        PSCENC =       358.28533891
  Ewald energy   TEWEN  =     71156.15325188
  -Hartree energ DENC   =    -83836.68542301
  -exchange      EXHF   =         0.00000000
  -V(xc)+E(xc)   XCENC  =        84.73899524
  PAW double counting   =     13439.42348314   -13001.40714459
  entropy T*S    EENTRO =         0.02112811
  eigenvalues    EBANDS =      -578.44796300
  atomic energy  EATOM  =     12232.07567246
  Solvation  Ediel_sol  =         0.00000000
  ---------------------------------------------------
  free energy    TOTEN  =      -145.84266087 eV

  energy without entropy =     -145.86378898  energy(sigma->0) =     -145.84970357


--------------------------------------------------------------------------------------------------------




--------------------------------------- Iteration      1(   8)  ---------------------------------------


    POTLOK:  cpu time    0.0585: real time    0.0590
    SETDIJ:  cpu time    0.0091: real time    0.0091
     EDDAV:  cpu time    7.2875: real time    7.2870
       DOS:  cpu time    0.0020: real time    0.0020
    CHARGE:  cpu time    0.3427: real time    0.3427
    MIXING:  cpu time    0.0184: real time    0.0184
    --------------------------------------------
      LOOP:  cpu time    7.7184: real time    7.7183

 eigenvalue-minimisations  :  3728
 total energy-change (2. order) : 0.2780728E+02  (-0.8806907E+01)
 number of electron     169.9999991 magnetization 
 augmentation part       49.5744036 magnetization 

 Broyden mixing:
  rms(total) = 0.35209E+01    rms(broyden)= 0.35207E+01
  rms(prec ) = 0.40557E+01
  weight for this iteration     100.00

 eigenvalues of (default mixing * dielectric matrix)
  average eigenvalue GAMMA=   0.7779
  1.8757  0.2290  0.2290

 Free energy of the ion-electron system (eV)
  ---------------------------------------------------
  alpha Z        PSCENC =       358.28533891
  Ewald energy   TEWEN  =     71156.15325188
  -Hartree energ DENC   =    -83858.80817046
  -exchange      EXHF   =         0.00000000
  -V(xc)+E(xc)   XCENC  =        83.67095151
  PAW double counting   =     14186.77424450   -13757.15823898
  entropy T*S    EENTRO =         0.02082364
  eigenvalues    EBANDS =      -519.04925016
  atomic energy  EATOM  =     12232.07567246
  Solvation  Ediel_sol  =         0.00000000
  ---------------------------------------------------
  free energy    TOTEN  =      -118.03537670 eV

  energy without entropy =     -118.05620034  energy(sigma->0) =     -118.04231792


--------------------------------------------------------------------------------------------------------




--------------------------------------- Iteration      1(   9)  ---------------------------------------


    POTLOK:  cpu time    0.0565: real time    0.0566
    SETDIJ:  cpu time    0.0071: real time    0.0071
     EDDAV:  cpu time    6.7388: real time    6.7385
       DOS:  cpu time    0.0022: real time    0.0028
    CHARGE:  cpu time    0.3555: real time    0.3555
    MIXING:  cpu time    0.0016: real time    0.0016
    --------------------------------------------
      LOOP:  cpu time    7.1618: real time    7.1621

 eigenvalue-minimisations  :  3288
 total energy-change (2. order) : 0.1045822E+02  (-0.4127892E+01)
 number of electron     170.0000032 magnetization 
 augmentation part       51.0116323 magnetization 

 Broyden mixing:
  rms(total) = 0.25629E+01    rms(broyden)= 0.25627E+01
  rms(prec ) = 0.35739E+01
  weight for this iteration     100.00

 eigenvalues of (default mixing * dielectric matrix)
  average eigenvalue GAMMA=   0.8000
  2.1747  0.5432  0.3257  0.1563

 Free energy of the ion-electron system (eV)
  ---------------------------------------------------
  alpha Z        PSCENC =       358.28533891
  Ewald energy   TEWEN  =     71156.15325188
  -Hartree energ DENC   =    -83725.58678405
  -exchange      EXHF   =         0.00000000
  -V(xc)+E(xc)   XCENC  =        83.37134011
  PAW double counting   =     14815.87909525   -14392.54055479
  entropy T*S    EENTRO =        -0.01682567
  eigenvalues    EBANDS =      -635.19769441
  atomic energy  EATOM  =     12232.07567246
  Solvation  Ediel_sol  =         0.00000000
  ---------------------------------------------------
  free energy    TOTEN  =      -107.57716031 eV

  energy without entropy =     -107.56033464  energy(sigma->0) =     -107.57155175


--------------------------------------------------------------------------------------------------------




--------------------------------------- Iteration      1(  10)  ---------------------------------------


    POTLOK:  cpu time    0.0508: real time    0.0520
    SETDIJ:  cpu time    0.0068: real time    0.0068
     EDDAV:  cpu time    6.9705: real time    6.9702
       DOS:  cpu time    0.0020: real time    0.0020
    CHARGE:  cpu time    0.4775: real time    0.4775
    MIXING:  cpu time    0.0104: real time    0.0104
    --------------------------------------------
      LOOP:  cpu time    7.5182: real time    7.5189

 eigenvalue-minimisations  :  3152
 total energy-change (2. order) : 0.7964569E+01  (-0.2264413E+01)
 number of electron     170.0000016 magnetization 
 augmentation part       50.7789528 magnetization 

 Broyden mixing:
  rms(total) = 0.98370E+00    rms(broyden)= 0.98331E+00
  rms(prec ) = 0.10342E+01
  weight for this iteration     100.00

 eigenvalues of (default mixing * dielectric matrix)
  average eigenvalue GAMMA=   0.7425
  2.1245  0.7581  0.3376  0.3376  0.1546

 Free energy of the ion-electron system (eV)
  ---------------------------------------------------
  alpha Z        PSCENC =       358.28533891
  Ewald energy   TEWEN  =     71156.15325188
  -Hartree energ DENC   =    -83760.34479816
  -exchange      EXHF   =         0.00000000
  -V(xc)+E(xc)   XCENC  =        83.83906247
  PAW double counting   =     15222.73336708   -14799.98980540
  entropy T*S    EENTRO =        -0.02128300
  eigenvalues    EBANDS =      -592.34339799
  atomic energy  EATOM  =     12232.07567246
  Solvation  Ediel_sol  =         0.00000000
  ---------------------------------------------------
  free energy    TOTEN  =       -99.61259174 eV

  energy without entropy =      -99.59130874  energy(sigma->0) =      -99.60549741


--------------------------------------------------------------------------------------------------------




--------------------------------------- Iteration      1(  11)  ---------------------------------------


    POTLOK:  cpu time    0.0516: real time    0.0518
    SETDIJ:  cpu time    0.0074: real time    0.0074
     EDDAV:  cpu time    6.8158: real time    6.8154
       DOS:  cpu time    0.0022: real time    0.0022
    CHARGE:  cpu time    0.4169: real time    0.4169
    MIXING:  cpu time    0.0024: real time    0.0024
    --------------------------------------------
      LOOP:  cpu time    7.2964: real time    7.2962

 eigenvalue-minimisations  :  3136
 total energy-change (2. order) :-0.5467970E-01  (-0.5832550E+00)
 number of electron     170.0000019 magnetization 
 augmentation part       50.6209077 magnetization 

 Broyden mixing:
  rms(total) = 0.11088E+01    rms(broyden)= 0.11088E+01
  rms(prec ) = 0.14329E+01
  weight for this iteration     100.00

 eigenvalues of (default mixing * dielectric matrix)
  average eigenvalue GAMMA=   0.7244
  2.1622  0.9027  0.4328  0.4328  0.1567  0.2589

 Free energy of the ion-electron system (eV)
  ---------------------------------------------------
  alpha Z        PSCENC =       358.28533891
  Ewald energy   TEWEN  =     71156.15325188
  -Hartree energ DENC   =    -83752.24602813
  -exchange      EXHF   =         0.00000000
  -V(xc)+E(xc)   XCENC  =        83.99566733
  PAW double counting   =     15246.38749373   -14823.10377722
  entropy T*S    EENTRO =        -0.03504466
  eigenvalues    EBANDS =      -601.17984574
  atomic energy  EATOM  =     12232.07567246
  Solvation  Ediel_sol  =         0.00000000
  ---------------------------------------------------
  free energy    TOTEN  =       -99.66727144 eV

  energy without entropy =      -99.63222678  energy(sigma->0) =      -99.65558989


--------------------------------------------------------------------------------------------------------




--------------------------------------- Iteration      1(  12)  ---------------------------------------


    POTLOK:  cpu time    0.0672: real time    0.0673
    SETDIJ:  cpu time    0.0062: real time    0.0062
     EDDAV:  cpu time    6.6332: real time    6.6328
       DOS:  cpu time    0.0023: real time    0.0029
    CHARGE:  cpu time    0.3325: real time    0.3325
    MIXING:  cpu time    0.0091: real time    0.0091
    --------------------------------------------
      LOOP:  cpu time    7.0506: real time    7.0509

 eigenvalue-minimisations  :  3032
 total energy-change (2. order) : 0.7510478E+00  (-0.3231869E+00)
 number of electron     170.0000024 magnetization 
 augmentation part       50.6604843 magnetization 

 Broyden mixing:
  rms(total) = 0.57122E+00    rms(broyden)= 0.57112E+00
  rms(prec ) = 0.59351E+00
  weight for this iteration     100.00

 eigenvalues of (default mixing * dielectric matrix)
  average eigenvalue GAMMA=   0.6410
  2.1390  0.8321  0.4600  0.4600  0.2508  0.1564  0.1892

 Free energy of the ion-electron system (eV)
  ---------------------------------------------------
  alpha Z        PSCENC =       358.28533891
  Ewald energy   TEWEN  =     71156.15325188
  -Hartree energ DENC   =    -83755.24292114
  -exchange      EXHF   =         0.00000000
  -V(xc)+E(xc)   XCENC  =        83.93234663
  PAW double counting   =     15268.90015497   -14846.16095435
  entropy T*S    EENTRO =        -0.02729155
  eigenvalues    EBANDS =      -596.83182141
  atomic energy  EATOM  =     12232.07567246
  Solvation  Ediel_sol  =         0.00000000
  ---------------------------------------------------
  free energy    TOTEN  =       -98.91622360 eV

  energy without entropy =      -98.88893205  energy(sigma->0) =      -98.90712642


--------------------------------------------------------------------------------------------------------




--------------------------------------- Iteration      1(  13)  ---------------------------------------


    POTLOK:  cpu time    0.0627: real time    0.0636
    SETDIJ:  cpu time    0.0090: real time    0.0090
     EDDAV:  cpu time    6.6858: real time    6.6854
       DOS:  cpu time    0.0022: real time    0.0022
    CHARGE:  cpu time    0.3593: real time    0.3593
    MIXING:  cpu time    0.0020: real time    0.0020
    --------------------------------------------
      LOOP:  cpu time    7.1209: real time    7.1214

 eigenvalue-minimisations  :  3056
 total energy-change (2. order) : 0.8795271E-01  (-0.3189811E-01)
 number of electron     170.0000022 magnetization 
 augmentation part       50.6643405 magnetization 

 Broyden mixing:
  rms(total) = 0.44694E+00    rms(broyden)= 0.44693E+00
  rms(prec ) = 0.47391E+00
  weight for this iteration     100.00

 eigenvalues of (default mixing * dielectric matrix)
  average eigenvalue GAMMA=   0.6174
  2.0442  0.6582  0.6582  0.3958  0.3958  0.3857  0.1565  0.2447

 Free energy of the ion-electron system (eV)
  ---------------------------------------------------
  alpha Z        PSCENC =       358.28533891
  Ewald energy   TEWEN  =     71156.15325188
  -Hartree energ DENC   =    -83757.73528378
  -exchange      EXHF   =         0.00000000
  -V(xc)+E(xc)   XCENC  =        83.93461195
  PAW double counting   =     15238.32223704   -14815.47244970
  entropy T*S    EENTRO =        -0.02345635
  eigenvalues    EBANDS =      -594.36819330
  atomic energy  EATOM  =     12232.07567246
  Solvation  Ediel_sol  =         0.00000000
  ---------------------------------------------------
  free energy    TOTEN  =       -98.82827089 eV

  energy without entropy =      -98.80481454  energy(sigma->0) =      -98.82045210


--------------------------------------------------------------------------------------------------------




--------------------------------------- Iteration      1(  14)  ---------------------------------------


    POTLOK:  cpu time    0.0437: real time    0.0444
    SETDIJ:  cpu time    0.0067: real time    0.0067
     EDDAV:  cpu time    6.9801: real time    6.9797
       DOS:  cpu time    0.0023: real time    0.0034
    CHARGE:  cpu time    0.3879: real time    0.3879
    MIXING:  cpu time    0.0032: real time    0.0032
    --------------------------------------------
      LOOP:  cpu time    7.4240: real time    7.4254

 eigenvalue-minimisations  :  3032
 total energy-change (2. order) : 0.3011169E-01  (-0.5461770E-02)
 number of electron     170.0000023 magnetization 
 augmentation part       50.6366887 magnetization 

 Broyden mixing:
  rms(total) = 0.38415E+00    rms(broyden)= 0.38415E+00
  rms(prec ) = 0.39873E+00
  weight for this iteration     100.00

 eigenvalues of (default mixing * dielectric matrix)
  average eigenvalue GAMMA=   0.8381
  1.9123  1.9123  1.5611  0.5753  0.4424  0.4424  0.1564  0.2661  0.2741

 Free energy of the ion-electron system (eV)
  ---------------------------------------------------
  alpha Z        PSCENC =       358.28533891
  Ewald energy   TEWEN  =     71156.15325188
  -Hartree energ DENC   =    -83759.49947987
  -exchange      EXHF   =         0.00000000
  -V(xc)+E(xc)   XCENC  =        84.00809620
  PAW double counting   =     15163.56449338   -14740.18594153
  entropy T*S    EENTRO =        -0.02304087
  eigenvalues    EBANDS =      -593.17654976
  atomic energy  EATOM  =     12232.07567246
  Solvation  Ediel_sol  =         0.00000000
  ---------------------------------------------------
  free energy    TOTEN  =       -98.79815920 eV

  energy without entropy =      -98.77511833  energy(sigma->0) =      -98.79047891


--------------------------------------------------------------------------------------------------------




--------------------------------------- Iteration      1(  15)  ---------------------------------------


    POTLOK:  cpu time    0.0403: real time    0.0411
    SETDIJ:  cpu time    0.0064: real time    0.0064
     EDDAV:  cpu time    6.9148: real time    6.9144
       DOS:  cpu time    0.0023: real time    0.0023
    CHARGE:  cpu time    0.3835: real time    0.3835
    MIXING:  cpu time    0.0113: real time    0.0113
    --------------------------------------------
      LOOP:  cpu time    7.3585: real time    7.3588

 eigenvalue-minimisations  :  3032
 total energy-change (2. order) :-0.5574310E-01  (-0.5723637E-01)
 number of electron     170.0000020 magnetization 
 augmentation part       50.5424889 magnetization 

 Broyden mixing:
  rms(total) = 0.38967E+00    rms(broyden)= 0.38964E+00
  rms(prec ) = 0.49340E+00
  weight for this iteration     100.00

 eigenvalues of (default mixing * dielectric matrix)
  average eigenvalue GAMMA=   0.8112
  1.9459  1.9459  1.6077  0.7312  0.4339  0.4339  0.1565  0.3013  0.3013  0.2547

 Free energy of the ion-electron system (eV)
  ---------------------------------------------------
  alpha Z        PSCENC =       358.28533891
  Ewald energy   TEWEN  =     71156.15325188
  -Hartree energ DENC   =    -83773.06624423
  -exchange      EXHF   =         0.00000000
  -V(xc)+E(xc)   XCENC  =        84.24935187
  PAW double counting   =     14929.99042268   -14505.37955338
  entropy T*S    EENTRO =        -0.04941173
  eigenvalues    EBANDS =      -581.11273074
  atomic energy  EATOM  =     12232.07567246
  Solvation  Ediel_sol  =         0.00000000
  ---------------------------------------------------
  free energy    TOTEN  =       -98.85390229 eV

  energy without entropy =      -98.80449056  energy(sigma->0) =      -98.83743172


--------------------------------------------------------------------------------------------------------




--------------------------------------- Iteration      1(  16)  ---------------------------------------


    POTLOK:  cpu time    0.0687: real time    0.0689
    SETDIJ:  cpu time    0.0066: real time    0.0066
     EDDAV:  cpu time    6.7467: real time    6.7462
       DOS:  cpu time    0.0025: real time    0.0037
    CHARGE:  cpu time    0.4079: real time    0.4079
    MIXING:  cpu time    0.0029: real time    0.0029
    --------------------------------------------
      LOOP:  cpu time    7.2352: real time    7.2361

 eigenvalue-minimisations  :  2928
 total energy-change (2. order) : 0.6884907E-01  (-0.2803764E-01)
 number of electron     170.0000020 magnetization 
 augmentation part       50.5441540 magnetization 

 Broyden mixing:
  rms(total) = 0.23887E+00    rms(broyden)= 0.23886E+00
  rms(prec ) = 0.30314E+00
  weight for this iteration     100.00

 eigenvalues of (default mixing * dielectric matrix)
  average eigenvalue GAMMA=   0.7529
  1.7491  1.7095  1.7095  0.6857  0.5450  0.4374  0.4374  0.1564  0.3323  0.2652
  0.2549

 Free energy of the ion-electron system (eV)
  ---------------------------------------------------
  alpha Z        PSCENC =       358.28533891
  Ewald energy   TEWEN  =     71156.15325188
  -Hartree energ DENC   =    -83776.21455352
  -exchange      EXHF   =         0.00000000
  -V(xc)+E(xc)   XCENC  =        84.27854979
  PAW double counting   =     14943.45912817   -14519.03234375
  entropy T*S    EENTRO =        -0.04088589
  eigenvalues    EBANDS =      -577.74921128
  atomic energy  EATOM  =     12232.07567246
  Solvation  Ediel_sol  =         0.00000000
  ---------------------------------------------------
  free energy    TOTEN  =       -98.78505322 eV

  energy without entropy =      -98.74416733  energy(sigma->0) =      -98.77142459


--------------------------------------------------------------------------------------------------------




--------------------------------------- Iteration      1(  17)  ---------------------------------------


    POTLOK:  cpu time    0.0435: real time    0.0460
    SETDIJ:  cpu time    0.0065: real time    0.0065
     EDDAV:  cpu time    6.4436: real time    6.4433
       DOS:  cpu time    0.0026: real time    0.0038
    CHARGE:  cpu time    0.3315: real time    0.3315
    MIXING:  cpu time    0.0072: real time    0.0079
    --------------------------------------------
      LOOP:  cpu time    6.8349: real time    6.8390

 eigenvalue-minimisations  :  3000
 total energy-change (2. order) : 0.3949969E-01  (-0.8369386E-02)
 number of electron     170.0000020 magnetization 
 augmentation part       50.5527820 magnetization 

 Broyden mixing:
  rms(total) = 0.89059E-01    rms(broyden)= 0.89041E-01
  rms(prec ) = 0.97423E-01
  weight for this iteration     100.00

 eigenvalues of (default mixing * dielectric matrix)
  average eigenvalue GAMMA=   0.7207
  1.8177  1.6019  1.6019  0.7110  0.7110  0.4438  0.4438  0.1564  0.3490  0.2540
  0.2787  0.2787

 Free energy of the ion-electron system (eV)
  ---------------------------------------------------
  alpha Z        PSCENC =       358.28533891
  Ewald energy   TEWEN  =     71156.15325188
  -Hartree energ DENC   =    -83775.99020816
  -exchange      EXHF   =         0.00000000
  -V(xc)+E(xc)   XCENC  =        84.26117697
  PAW double counting   =     14988.45931322   -14564.21112418
  entropy T*S    EENTRO =        -0.03561578
  eigenvalues    EBANDS =      -577.74335886
  atomic energy  EATOM  =     12232.07567246
  Solvation  Ediel_sol  =         0.00000000
  ---------------------------------------------------
  free energy    TOTEN  =       -98.74555353 eV

  energy without entropy =      -98.70993775  energy(sigma->0) =      -98.73368160


--------------------------------------------------------------------------------------------------------




--------------------------------------- Iteration      1(  18)  ---------------------------------------


    POTLOK:  cpu time    0.0613: real time    0.0621
    SETDIJ:  cpu time    0.0084: real time    0.0084
     EDDAV:  cpu time    6.6885: real time    6.6881
       DOS:  cpu time    0.0022: real time    0.0033
    CHARGE:  cpu time    0.3347: real time    0.3347
    MIXING:  cpu time    0.0027: real time    0.0027
    --------------------------------------------
      LOOP:  cpu time    7.0978: real time    7.0993

 eigenvalue-minimisations  :  3016
 total energy-change (2. order) : 0.4061997E-02  (-0.1854473E-02)
 number of electron     170.0000021 magnetization 
 augmentation part       50.5560313 magnetization 

 Broyden mixing:
  rms(total) = 0.61018E-01    rms(broyden)= 0.61013E-01
  rms(prec ) = 0.65373E-01
  weight for this iteration     100.00

 eigenvalues of (default mixing * dielectric matrix)
  average eigenvalue GAMMA=   0.7520
  2.0517  1.5471  1.5471  0.8880  0.8880  0.6953  0.4428  0.4428  0.1564  0.3076
  0.3076  0.2511  0.2511

 Free energy of the ion-electron system (eV)
  ---------------------------------------------------
  alpha Z        PSCENC =       358.28533891
  Ewald energy   TEWEN  =     71156.15325188
  -Hartree energ DENC   =    -83776.04768485
  -exchange      EXHF   =         0.00000000
  -V(xc)+E(xc)   XCENC  =        84.25969246
  PAW double counting   =     15006.40266371   -14582.21246877
  entropy T*S    EENTRO =        -0.03219701
  eigenvalues    EBANDS =      -577.62576030
  atomic energy  EATOM  =     12232.07567246
  Solvation  Ediel_sol  =         0.00000000
  ---------------------------------------------------
  free energy    TOTEN  =       -98.74149153 eV

  energy without entropy =      -98.70929452  energy(sigma->0) =      -98.73075919


--------------------------------------------------------------------------------------------------------




--------------------------------------- Iteration      1(  19)  ---------------------------------------


    POTLOK:  cpu time    0.0557: real time    0.0566
    SETDIJ:  cpu time    0.0115: real time    0.0115
     EDDAV:  cpu time    6.4424: real time    6.4421
       DOS:  cpu time    0.0023: real time    0.0036
    CHARGE:  cpu time    0.3961: real time    0.3961
    MIXING:  cpu time    0.0030: real time    0.0030
    --------------------------------------------
      LOOP:  cpu time    6.9111: real time    6.9128

 eigenvalue-minimisations  :  3048
 total energy-change (2. order) : 0.8869905E-03  (-0.3134628E-03)
 number of electron     170.0000021 magnetization 
 augmentation part       50.5573754 magnetization 

 Broyden mixing:
  rms(total) = 0.47266E-01    rms(broyden)= 0.47265E-01
  rms(prec ) = 0.52004E-01
  weight for this iteration     100.00

 eigenvalues of (default mixing * dielectric matrix)
  average eigenvalue GAMMA=   0.8301
  2.2072  1.9509  1.4380  1.4380  1.0108  0.7066  0.7066  0.4421  0.4421  0.1564
  0.3285  0.2871  0.2554  0.2520

 Free energy of the ion-electron system (eV)
  ---------------------------------------------------
  alpha Z        PSCENC =       358.28533891
  Ewald energy   TEWEN  =     71156.15325188
  -Hartree energ DENC   =    -83777.27013907
  -exchange      EXHF   =         0.00000000
  -V(xc)+E(xc)   XCENC  =        84.26407541
  PAW double counting   =     15020.61966795   -14596.48368990
  entropy T*S    EENTRO =        -0.03299951
  eigenvalues    EBANDS =      -576.35178265
  atomic energy  EATOM  =     12232.07567246
  Solvation  Ediel_sol  =         0.00000000
  ---------------------------------------------------
  free energy    TOTEN  =       -98.74060454 eV

  energy without entropy =      -98.70760503  energy(sigma->0) =      -98.72960470


--------------------------------------------------------------------------------------------------------




--------------------------------------- Iteration      1(  20)  ---------------------------------------


    POTLOK:  cpu time    0.0468: real time    0.0476
    SETDIJ:  cpu time    0.0065: real time    0.0065
     EDDAV:  cpu time    7.1820: real time    7.1816
       DOS:  cpu time    0.0023: real time    0.0023
    CHARGE:  cpu time    0.3100: real time    0.3100
    MIXING:  cpu time    0.0034: real time    0.0034
    --------------------------------------------
      LOOP:  cpu time    7.5511: real time    7.5514

 eigenvalue-minimisations  :  3072
 total energy-change (2. order) : 0.1596902E-02  (-0.4107990E-03)
 number of electron     170.0000020 magnetization 
 augmentation part       50.5530832 magnetization 

 Broyden mixing:
  rms(total) = 0.20295E-01    rms(broyden)= 0.20288E-01
  rms(prec ) = 0.23194E-01
  weight for this iteration     100.00

 eigenvalues of (default mixing * dielectric matrix)
  average eigenvalue GAMMA=   0.8205
  2.1897  2.1897  1.4694  1.4694  1.0106  0.6699  0.6699  0.4421  0.4421  0.4724
  0.1564  0.3286  0.2872  0.2533  0.2567

 Free energy of the ion-electron system (eV)
  ---------------------------------------------------
  alpha Z        PSCENC =       358.28533891
  Ewald energy   TEWEN  =     71156.15325188
  -Hartree energ DENC   =    -83780.49654049
  -exchange      EXHF   =         0.00000000
  -V(xc)+E(xc)   XCENC  =        84.28040221
  PAW double counting   =     15031.46333109   -14607.33473783
  entropy T*S    EENTRO =        -0.03368956
  eigenvalues    EBANDS =      -573.13203630
  atomic energy  EATOM  =     12232.07567246
  Solvation  Ediel_sol  =         0.00000000
  ---------------------------------------------------
  free energy    TOTEN  =       -98.73900764 eV

  energy without entropy =      -98.70531808  energy(sigma->0) =      -98.72777778


--------------------------------------------------------------------------------------------------------




--------------------------------------- Iteration      1(  21)  ---------------------------------------


    POTLOK:  cpu time    0.0444: real time    0.0445
    SETDIJ:  cpu time    0.0076: real time    0.0076
     EDDAV:  cpu time    6.1251: real time    6.1247
       DOS:  cpu time    0.0025: real time    0.0033
    CHARGE:  cpu time    0.2933: real time    0.2933
    MIXING:  cpu time    0.0032: real time    0.0032
    --------------------------------------------
      LOOP:  cpu time    6.4761: real time    6.4766

 eigenvalue-minimisations  :  2704
 total energy-change (2. order) : 0.1828272E-03  (-0.6794567E-04)
 number of electron     170.0000020 magnetization 
 augmentation part       50.5526738 magnetization 

 Broyden mixing:
  rms(total) = 0.13133E-01    rms(broyden)= 0.13133E-01
  rms(prec ) = 0.13676E-01
  weight for this iteration     100.00

 eigenvalues of (default mixing * dielectric matrix)
  average eigenvalue GAMMA=   0.8110
  2.2767  2.2767  1.4831  1.4831  1.0468  0.6296  0.6296  0.4420  0.4420  0.4919
  0.4919  0.1564  0.3298  0.2869  0.2543  0.2543

 Free energy of the ion-electron system (eV)
  ---------------------------------------------------
  alpha Z        PSCENC =       358.28533891
  Ewald energy   TEWEN  =     71156.15325188
  -Hartree energ DENC   =    -83780.92224778
  -exchange      EXHF   =         0.00000000
  -V(xc)+E(xc)   XCENC  =        84.28372421
  PAW double counting   =     15032.55204360   -14608.41526336
  entropy T*S    EENTRO =        -0.03300007
  eigenvalues    EBANDS =      -572.71834466
  atomic energy  EATOM  =     12232.07567246
  Solvation  Ediel_sol  =         0.00000000
  ---------------------------------------------------
  free energy    TOTEN  =       -98.73882481 eV

  energy without entropy =      -98.70582475  energy(sigma->0) =      -98.72782479


--------------------------------------------------------------------------------------------------------




--------------------------------------- Iteration      1(  22)  ---------------------------------------


    POTLOK:  cpu time    0.0574: real time    0.0581
    SETDIJ:  cpu time    0.0122: real time    0.0122
     EDDAV:  cpu time    4.4926: real time    4.4923
       DOS:  cpu time    0.0024: real time    0.0033
    --------------------------------------------
      LOOP:  cpu time    4.5644: real time    4.5658

 eigenvalue-minimisations  :  1728
 total energy-change (2. order) : 0.2750808E-04  (-0.1048209E-04)
 number of electron     170.0000020 magnetization 
 augmentation part       50.5526738 magnetization 

 Free energy of the ion-electron system (eV)
  ---------------------------------------------------
  alpha Z        PSCENC =       358.28533891
  Ewald energy   TEWEN  =     71156.15325188
  -Hartree energ DENC   =    -83781.39765113
  -exchange      EXHF   =         0.00000000
  -V(xc)+E(xc)   XCENC  =        84.28718748
  PAW double counting   =     15032.78970621   -14608.64819940
  entropy T*S    EENTRO =        -0.03289136
  eigenvalues    EBANDS =      -572.25121235
  atomic energy  EATOM  =     12232.07567246
  Solvation  Ediel_sol  =         0.00000000
  ---------------------------------------------------
  free energy    TOTEN  =       -98.73879730 eV

  energy without entropy =      -98.70590595  energy(sigma->0) =      -98.72783352


--------------------------------------------------------------------------------------------------------




 average (electrostatic) potential at core
  the test charge radii are     1.2059  0.6991  0.7215
  (the norm of the test charge is              1.0000)
       1 -73.4377       2 -73.4173       3 -73.4172       4 -73.4172       5 -73.8863
       6 -73.8863       7 -73.8861       8 -73.6740       9 -73.8785      10 -73.8766
      11 -73.8784      12 -73.8785      13 -74.6571      14 -73.4179      15 -73.4178
      16 -73.4180      17 -57.7191      18 -78.2496
 
 
 
 E-fermi :   0.1904     XC(G=0):  -5.5291     alpha+bet : -5.6359


 k-point     1 :       0.0000    0.0000    0.0000
  band No.  band energies     occupation 
      1     -23.7719      2.00000
      2     -10.1359      2.00000
      3      -8.8882      2.00000
      4      -7.7081      2.00000
      5      -7.3157      2.00000
      6      -6.6061      2.00000
      7      -6.6060      2.00000
      8      -6.5904      2.00000
      9      -6.4418      2.00000
     10      -6.1943      2.00000
     11      -6.1943      2.00000
     12      -6.1449      2.00000
     13      -6.0556      2.00000
     14      -6.0006      2.00000
     15      -6.0006      2.00000
     16      -5.5896      2.00000
     17      -5.5896      2.00000
     18      -5.5279      2.00000
     19      -5.4230      2.00000
     20      -5.4230      2.00000
     21      -5.3949      2.00000
     22      -5.3088      2.00000
     23      -5.3088      2.00000
     24      -5.2933      2.00000
     25      -4.5748      2.00000
     26      -4.5748      2.00000
     27      -4.4800      2.00000
     28      -3.7624      2.00000
     29      -3.7624      2.00000
     30      -3.5092      2.00000
     31      -3.4147      2.00000
     32      -3.4147      2.00000
     33      -3.3799      2.00000
     34      -3.3415      2.00000
     35      -3.2222      2.00000
     36      -3.2222      2.00000
     37      -3.1244      2.00000
     38      -3.1244      2.00000
     39      -3.1244      2.00000
     40      -3.0007      2.00000
     41      -2.9977      2.00000
     42      -2.9977      2.00000
     43      -2.8493      2.00000
     44      -2.8493      2.00000
     45      -2.6843      2.00000
     46      -2.6843      2.00000
     47      -2.4083      2.00000
     48      -2.3989      2.00000
     49      -2.3988      2.00000
     50      -2.1921      2.00000
     51      -2.1921      2.00000
     52      -2.0844      2.00000
     53      -1.9639      2.00000
     54      -1.8569      2.00000
     55      -1.8568      2.00000
     56      -1.6205      2.00000
     57      -1.3975      2.00000
     58      -1.3975      2.00000
     59      -1.1993      2.00000
     60      -1.1993      2.00000
     61      -0.8969      2.00000
     62      -0.8969      2.00000
     63      -0.7085      2.00000
     64      -0.7039      2.00000
     65      -0.5868      2.00000
     66      -0.5868      2.00000
     67      -0.4258      2.00012
     68      -0.4258      2.00012
     69      -0.1421      2.04040
     70      -0.1420      2.04044
     71      -0.1420      2.04045
     72      -0.0011      2.04030
     73      -0.0011      2.04029
     74       0.0737      1.82540
     75       0.1271      1.50734
     76       0.1271      1.50727
     77       0.2328      0.65031
     78       0.2328      0.65025
     79       0.2343      0.63860
     80       0.3304      0.08057
     81       0.3304      0.08045
     82       0.3951     -0.05475
     83       0.4536     -0.06867
     84       0.4536     -0.06866
     85       0.4719     -0.06302
     86       0.6347     -0.00734
     87       0.6559     -0.00484
     88       0.6559     -0.00484
     89       0.6737     -0.00334
     90       0.9776     -0.00000
     91       0.9776     -0.00000
     92       0.9980     -0.00000
     93       2.0855     -0.00000
     94       2.0855     -0.00000
     95       2.3188     -0.00000
     96       2.5950     -0.00000
     97       2.8363     -0.00000
     98       2.8363     -0.00000
     99       3.0206     -0.00000
    100       3.0206     -0.00000
    101       3.0570     -0.00000
    102       3.2490     -0.00000
    103       4.2361     -0.00000
    104       4.2362     -0.00000

 k-point     2 :       0.2000    0.0000    0.0000
  band No.  band energies     occupation 
      1     -23.7717      2.00000
      2     -10.1172      2.00000
      3      -8.5717      2.00000
      4      -7.5255      2.00000
      5      -7.1771      2.00000
      6      -6.6002      2.00000
      7      -6.5953      2.00000
      8      -6.2797      2.00000
      9      -6.2073      2.00000
     10      -6.1334      2.00000
     11      -5.9774      2.00000
     12      -5.9559      2.00000
     13      -5.9168      2.00000
     14      -5.7924      2.00000
     15      -5.7679      2.00000
     16      -5.4621      2.00000
     17      -5.4272      2.00000
     18      -5.4037      2.00000
     19      -5.3451      2.00000
     20      -5.1946      2.00000
     21      -5.1693      2.00000
     22      -5.1371      2.00000
     23      -5.0186      2.00000
     24      -5.0149      2.00000
     25      -4.4833      2.00000
     26      -4.4777      2.00000
     27      -4.3857      2.00000
     28      -3.8275      2.00000
     29      -3.7591      2.00000
     30      -3.6283      2.00000
     31      -3.5778      2.00000
     32      -3.5004      2.00000
     33      -3.4070      2.00000
     34      -3.3636      2.00000
     35      -3.3206      2.00000
     36      -3.2409      2.00000
     37      -3.0996      2.00000
     38      -3.0078      2.00000
     39      -2.9928      2.00000
     40      -2.9866      2.00000
     41      -2.9531      2.00000
     42      -2.9333      2.00000
     43      -2.9051      2.00000
     44      -2.7651      2.00000
     45      -2.7069      2.00000
     46      -2.7014      2.00000
     47      -2.6421      2.00000
     48      -2.5492      2.00000
     49      -2.5429      2.00000
     50      -2.4840      2.00000
     51      -2.4389      2.00000
     52      -2.3407      2.00000
     53      -2.1038      2.00000
     54      -2.0809      2.00000
     55      -1.9374      2.00000
     56      -1.7776      2.00000
     57      -1.5431      2.00000
[...]
     97       3.1474     -0.00000
     98       3.1577     -0.00000
     99       3.4256     -0.00000
    100       3.7977     -0.00000
    101       4.2009     -0.00000
    102       4.5300     -0.00000
    103       5.5246     -0.00000
    104       5.5480     -0.00000

 k-point    12 :      -0.4000    0.4000    0.0000
  band No.  band energies     occupation 
      1     -23.7708      2.00000
      2     -10.0863      2.00000
      3      -7.4828      2.00000
      4      -6.9501      2.00000
      5      -6.8662      2.00000
      6      -6.5813      2.00000
      7      -6.5803      2.00000
      8      -5.9685      2.00000
      9      -5.9525      2.00000
     10      -5.8442      2.00000
     11      -5.3877      2.00000
     12      -5.1541      2.00000
     13      -5.1369      2.00000
     14      -5.0666      2.00000
     15      -5.0004      2.00000
     16      -4.8876      2.00000
     17      -4.8376      2.00000
     18      -4.7997      2.00000
     19      -4.7173      2.00000
     20      -4.5253      2.00000
     21      -4.5051      2.00000
     22      -4.4564      2.00000
     23      -4.4359      2.00000
     24      -4.3853      2.00000
     25      -4.2877      2.00000
     26      -4.1586      2.00000
     27      -4.1144      2.00000
     28      -4.1097      2.00000
     29      -4.0792      2.00000
     30      -4.0156      2.00000
     31      -3.9537      2.00000
     32      -3.9268      2.00000
     33      -3.8931      2.00000
     34      -3.6924      2.00000
     35      -3.6586      2.00000
     36      -3.5650      2.00000
     37      -3.4784      2.00000
     38      -3.4259      2.00000
     39      -3.3746      2.00000
     40      -3.3054      2.00000
     41      -3.2786      2.00000
     42      -3.2571      2.00000
     43      -3.1656      2.00000
     44      -3.1410      2.00000
     45      -3.1079      2.00000
     46      -3.0094      2.00000
     47      -2.9930      2.00000
     48      -2.8421      2.00000
     49      -2.7731      2.00000
     50      -2.7466      2.00000
     51      -2.6204      2.00000
     52      -2.5765      2.00000
     53      -2.4904      2.00000
     54      -2.4516      2.00000
     55      -2.4299      2.00000
     56      -2.3385      2.00000
     57      -2.2392      2.00000
     58      -2.0066      2.00000
     59      -1.9108      2.00000
     60      -1.8567      2.00000
     61      -1.8442      2.00000
     62      -1.7303      2.00000
     63      -1.6910      2.00000
     64      -1.6215      2.00000
     65      -1.5277      2.00000
     66      -1.4591      2.00000
     67      -1.3453      2.00000
     68      -1.2937      2.00000
     69      -1.2267      2.00000
     70      -1.1516      2.00000
     71      -1.0571      2.00000
     72      -0.9769      2.00000
     73      -0.9389      2.00000
     74      -0.8745      2.00000
     75      -0.8139      2.00000
     76      -0.7530      2.00000
     77      -0.6284      2.00000
     78      -0.5370      2.00000
     79      -0.5090      2.00001
     80      -0.4572      2.00005
     81      -0.3681      2.00057
     82      -0.1870      2.02262
     83      -0.1033      2.05802
     84      -0.0837      2.06556
     85      -0.0351      2.06762
     86       0.0099      2.02371
     87       0.1218      1.54490
     88       0.1797      1.09097
     89       0.2812      0.31241
     90       0.5070     -0.04771
     91       0.6237     -0.00901
     92       0.6829     -0.00274
     93       1.2370     -0.00000
     94       1.8682     -0.00000
     95       2.5596     -0.00000
     96       3.0939     -0.00000
     97       3.2994     -0.00000
     98       3.3929     -0.00000
     99       3.8434     -0.00000
    100       4.1236     -0.00000
    101       4.8031     -0.00000
    102       5.1300     -0.00000
    103       5.4162     -0.00000
    104       5.6105     -0.00000

 k-point    13 :      -0.2000    0.4000    0.0000
  band No.  band energies     occupation 
      1     -23.7708      2.00000
      2     -10.0863      2.00000
      3      -7.4828      2.00000
      4      -6.9501      2.00000
      5      -6.8661      2.00000
      6      -6.5814      2.00000
      7      -6.5801      2.00000
      8      -5.9685      2.00000
      9      -5.9525      2.00000
     10      -5.8442      2.00000
     11      -5.3877      2.00000
     12      -5.1541      2.00000
     13      -5.1369      2.00000
     14      -5.0666      2.00000
     15      -5.0004      2.00000
     16      -4.8876      2.00000
     17      -4.8376      2.00000
     18      -4.7997      2.00000
     19      -4.7173      2.00000
     20      -4.5253      2.00000
     21      -4.5051      2.00000
     22      -4.4564      2.00000
     23      -4.4359      2.00000
     24      -4.3853      2.00000
     25      -4.2877      2.00000
     26      -4.1586      2.00000
     27      -4.1144      2.00000
     28      -4.1097      2.00000
     29      -4.0792      2.00000
     30      -4.0156      2.00000
     31      -3.9537      2.00000
     32      -3.9268      2.00000
     33      -3.8931      2.00000
     34      -3.6924      2.00000
     35      -3.6586      2.00000
     36      -3.5650      2.00000
     37      -3.4784      2.00000
     38      -3.4259      2.00000
     39      -3.3746      2.00000
     40      -3.3054      2.00000
     41      -3.2786      2.00000
     42      -3.2571      2.00000
     43      -3.1656      2.00000
     44      -3.1411      2.00000
     45      -3.1078      2.00000
     46      -3.0094      2.00000
     47      -2.9931      2.00000
     48      -2.8420      2.00000
     49      -2.7731      2.00000
     50      -2.7466      2.00000
     51      -2.6204      2.00000
     52      -2.5765      2.00000
     53      -2.4904      2.00000
     54      -2.4516      2.00000
     55      -2.4299      2.00000
     56      -2.3385      2.00000
     57      -2.2392      2.00000
     58      -2.0066      2.00000
     59      -1.9108      2.00000
     60      -1.8567      2.00000
     61      -1.8442      2.00000
     62      -1.7303      2.00000
     63      -1.6910      2.00000
     64      -1.6215      2.00000
     65      -1.5277      2.00000
     66      -1.4591      2.00000
     67      -1.3453      2.00000
     68      -1.2937      2.00000
     69      -1.2266      2.00000
     70      -1.1516      2.00000
     71      -1.0571      2.00000
     72      -0.9769      2.00000
     73      -0.9389      2.00000
     74      -0.8745      2.00000
     75      -0.8139      2.00000
     76      -0.7530      2.00000
     77      -0.6285      2.00000
     78      -0.5370      2.00000
     79      -0.5090      2.00001
     80      -0.4571      2.00005
     81      -0.3681      2.00057
     82      -0.1870      2.02263
     83      -0.1033      2.05802
     84      -0.0838      2.06555
     85      -0.0351      2.06762
     86       0.0099      2.02370
     87       0.1218      1.54475
     88       0.1797      1.09107
     89       0.2812      0.31241
     90       0.5070     -0.04771
     91       0.6237     -0.00901
     92       0.6829     -0.00274
     93       1.2370     -0.00000
     94       1.8682     -0.00000
     95       2.5597     -0.00000
     96       3.0938     -0.00000
     97       3.2993     -0.00000
     98       3.3930     -0.00000
     99       3.8434     -0.00000
    100       4.1236     -0.00000
    101       4.8031     -0.00000
    102       5.1304     -0.00000
    103       5.4160     -0.00000
    104       5.6105     -0.00000


--------------------------------------------------------------------------------------------------------


 soft charge-density along one line, spin component           1
         0         1         2         3         4         5         6         7         8         9
 total charge-density along one line
 
 pseudopotential strength for first ion, spin component:           1
 -6.475   0.000   0.000  -0.010   0.000  -6.576   0.000   0.000
  0.000  -6.357  -0.000   0.000  -0.010   0.000  -6.461  -0.000
  0.000  -0.000  -6.346  -0.000   0.000   0.000  -0.000  -6.451
 -0.010   0.000  -0.000  -6.357   0.000  -0.010   0.000  -0.000
  0.000  -0.010   0.000   0.000  -6.475   0.000  -0.010   0.000
 -6.576   0.000   0.000  -0.010   0.000  -6.661   0.000   0.000
  0.000  -6.461  -0.000   0.000  -0.010   0.000  -6.549  -0.000
  0.000  -0.000  -6.451  -0.000   0.000   0.000  -0.000  -6.539
 -0.010   0.000  -0.000  -6.461   0.000  -0.010   0.000  -0.000
  0.000  -0.010   0.000   0.000  -6.576   0.000  -0.010   0.000
  0.000   0.000  -0.037  -0.000   0.000   0.000   0.000  -0.036
  0.000   0.000  -0.054  -0.000   0.000   0.000   0.000  -0.053
  0.000  -0.005  -0.000   0.000   0.000   0.000  -0.005  -0.000
  0.000   0.000  -0.010   0.000   0.000   0.000   0.000  -0.010
  0.000   0.000  -0.000  -0.005   0.000   0.000   0.000  -0.000
  0.000  -0.004  -0.000   0.000   0.000   0.000  -0.004  -0.000
  0.000   0.000  -0.011   0.000   0.000   0.000   0.000  -0.010
  0.000   0.000  -0.000  -0.004   0.000   0.000   0.000  -0.000
 total augmentation occupancy for first ion, spin component:           1
  2.980   0.000  -0.000  -0.202  -0.000  -1.843  -0.000   0.000   0.036   0.000  -0.000   0.000  -0.000   0.000  -0.045  -0.000
  0.000   3.854  -0.000  -0.000  -0.202  -0.000  -1.999   0.000   0.000   0.044  -0.000   0.000  -0.240   0.000   0.000   0.010
 -0.000  -0.000   4.136  -0.000  -0.000   0.000   0.000  -2.488   0.000   0.000   0.829  -0.151   0.000  -0.284   0.000  -0.000
 -0.202  -0.000  -0.000   3.854   0.000   0.044   0.000   0.000  -1.999  -0.000  -0.000  -0.000   0.000   0.000  -0.240   0.000
 -0.000  -0.202  -0.000   0.000   2.980   0.000   0.036   0.000  -0.000  -1.843   0.000  -0.000  -0.045   0.000  -0.000   0.003
 -1.843  -0.000   0.000   0.044   0.000   2.338   0.000  -0.000   0.077  -0.000   0.000  -0.000   0.000  -0.000   0.047  -0.000
 -0.000  -1.999   0.000   0.000   0.036   0.000   1.982  -0.000  -0.000   0.077  -0.000   0.000   0.233  -0.000  -0.000  -0.017
  0.000   0.000  -2.488   0.000   0.000  -0.000  -0.000   2.620  -0.000  -0.000  -0.686   0.095  -0.000   0.346  -0.000   0.000
  0.036   0.000   0.000  -1.999  -0.000   0.077  -0.000  -0.000   1.982   0.000   0.000  -0.000  -0.000  -0.000   0.233   0.000
  0.000   0.044   0.000  -0.000  -1.843  -0.000   0.077  -0.000   0.000   2.338   0.000   0.000   0.047  -0.000   0.000  -0.003
 -0.000  -0.000   0.829  -0.000   0.000   0.000  -0.000  -0.686   0.000   0.000   2.291  -0.474  -0.000   0.187   0.000  -0.000
  0.000   0.000  -0.151  -0.000  -0.000  -0.000   0.000   0.095  -0.000   0.000  -0.474   0.117   0.000  -0.065  -0.000  -0.000
 -0.000  -0.240   0.000   0.000  -0.045   0.000   0.233  -0.000  -0.000   0.047  -0.000   0.000   0.255  -0.000   0.000  -0.015
  0.000   0.000  -0.284   0.000   0.000  -0.000  -0.000   0.346  -0.000  -0.000   0.187  -0.065  -0.000   0.140  -0.000   0.000
 -0.045   0.000   0.000  -0.240  -0.000   0.047  -0.000  -0.000   0.233   0.000   0.000  -0.000   0.000  -0.000   0.255  -0.000
 -0.000   0.010  -0.000   0.000   0.003  -0.000  -0.017   0.000   0.000  -0.003  -0.000  -0.000  -0.015   0.000  -0.000   0.001
  0.000  -0.000   0.001  -0.000  -0.000  -0.000   0.000  -0.020  -0.000   0.000  -0.020   0.006   0.000  -0.009  -0.000  -0.000
  0.003   0.000  -0.000   0.010  -0.000  -0.003  -0.000   0.000  -0.017  -0.000  -0.000  -0.000  -0.000   0.000  -0.015   0.000


------------------------ aborting loop because EDIFF is reached ----------------------------------------


    CHARGE:  cpu time    0.4479: real time    0.4478
    FORLOC:  cpu time    0.0105: real time    0.0105
    FORNL :  cpu time    1.2306: real time    1.2305
    FORCOR:  cpu time    0.0793: real time    0.0793
    FORHAR:  cpu time    0.0339: real time    0.0339
    MIXING:  cpu time    0.0096: real time    0.0096
    OFIELD:  cpu time    0.0000: real time    0.0000

 VOLUME and BASIS-vectors are now :
 -----------------------------------------------------------------------------
  energy-cutoff  :      350.00
  volume of cell :      742.39
      direct lattice vectors                 reciprocal lattice vectors
     5.643844236  0.000000000  0.000000000     0.177184195 -0.102297343  0.000000000
     2.821922118  4.887712483  0.000000000     0.000000000  0.204594686  0.000000000
     0.000000000  0.000000000 26.912269283     0.000000000  0.000000000  0.037157773

  length of vectors
     5.643844236  5.643844236 26.912269283     0.204594686  0.204594686  0.037157773


 FORCES acting on ions
    electron-ion (+dipol)            ewald-force                    non-local-force                 convergence-correction
 -----------------------------------------------------------------------------------------------
   0.269E-03 0.899E-03 0.267E+04   -.323E-04 -.765E-05 -.267E+04   0.107E-04 0.454E-04 -.129E+01   -.252E-03 -.942E-03 -.112E+00
   -.293E-03 0.325E+00 0.267E+04   0.323E-04 -.254E+00 -.267E+04   0.229E-05 0.184E-01 -.127E+01   0.265E-03 -.135E-01 -.984E-01
   0.280E+00 -.163E+00 0.267E+04   -.220E+00 0.127E+00 -.267E+04   0.159E-01 -.921E-02 -.127E+01   -.109E-01 0.738E-02 -.977E-01
   -.280E+00 -.163E+00 0.267E+04   0.220E+00 0.127E+00 -.267E+04   -.159E-01 -.919E-02 -.127E+01   0.109E-01 0.705E-02 -.975E-01
   0.107E+01 0.617E+00 0.101E+04   -.108E+01 -.621E+00 -.101E+04   0.741E-02 0.427E-02 -.422E+00   -.182E-01 -.101E-01 0.908E-01
   -.107E+01 0.618E+00 0.101E+04   0.108E+01 -.622E+00 -.101E+04   -.741E-02 0.429E-02 -.422E+00   0.183E-01 -.109E-01 0.913E-01
   0.967E-03 -.124E+01 0.101E+04   -.286E-03 0.124E+01 -.101E+04   0.982E-05 -.855E-02 -.422E+00   -.702E-03 0.210E-01 0.910E-01
   -.957E-03 -.400E-04 0.101E+04   0.292E-03 0.770E-04 -.101E+04   -.202E-04 0.124E-05 -.111E+00   0.688E-03 -.382E-04 0.106E+00
   -.515E-03 -.339E+01 -.669E+03   0.102E-03 0.295E+01 0.669E+03   -.575E-05 0.453E+00 -.726E-01   0.429E-03 -.931E-02 -.432E-01
   0.559E-03 -.116E-02 -.643E+03   -.129E-03 -.112E-03 0.642E+03   0.204E-04 -.231E-04 0.423E+00   -.456E-03 0.131E-02 -.420E-01
   0.294E+01 0.170E+01 -.669E+03   -.256E+01 -.148E+01 0.669E+03   -.392E+00 -.226E+00 -.726E-01   0.907E-02 0.369E-02 -.440E-01
   -.294E+01 0.170E+01 -.669E+03   0.256E+01 -.148E+01 0.669E+03   0.392E+00 -.226E+00 -.726E-01   -.920E-02 0.428E-02 -.445E-01
   0.150E-03 -.356E-04 -.228E+04   0.317E-03 0.238E-03 0.228E+04   -.933E-05 -.138E-04 -.544E+01   -.474E-03 -.198E-03 -.124E+00
   -.365E-03 -.289E+01 -.231E+04   -.270E-03 0.272E+01 0.231E+04   -.269E-04 0.177E+00 0.143E+01   0.671E-03 -.764E-02 -.155E+00
   -.250E+01 0.144E+01 -.231E+04   0.235E+01 -.136E+01 0.231E+04   0.153E+00 -.886E-01 0.143E+01   -.639E-02 0.432E-02 -.155E+00
   0.250E+01 0.144E+01 -.231E+04   -.235E+01 -.136E+01 0.231E+04   -.153E+00 -.886E-01 0.143E+01   0.640E-02 0.357E-02 -.155E+00
   -.816E-04 0.122E-03 -.103E+04   0.155E-03 -.110E-03 0.101E+04   -.329E-04 0.150E-05 0.134E+02   -.227E-04 -.450E-05 0.194E-01
   0.232E-03 -.622E-04 -.181E+04   -.279E-03 0.819E-04 0.187E+04   0.488E-04 -.317E-04 -.613E+02   -.737E-05 0.708E-05 0.513E-01
 -----------------------------------------------------------------------------------------------
   -.219E-04 0.168E-05 0.561E+02   0.249E-13 0.323E-14 -.409E-11   -.359E-04 -.275E-04 -.554E+02   0.427E-04 0.323E-04 -.719E+00
 
 
 POSITION                                       TOTAL-FORCE (eV/Angst)
 -----------------------------------------------------------------------------------
      0.00000      0.00000     10.00000        -0.000004     -0.000006     -0.125325
      2.82192      0.00000     10.00000         0.000007      0.075511     -0.182719
      1.41096      2.44386     10.00000         0.065402     -0.037747     -0.182661
      4.23288      2.44386     10.00000        -0.065398     -0.037745     -0.182694
      1.41096      0.81462     12.30409        -0.017005     -0.009813      0.172802
      4.23288      0.81462     12.30409         0.017006     -0.009824      0.172854
      2.82192      3.25847     12.30409        -0.000010      0.019638      0.172834
      5.64384      3.25847     12.30409         0.000004     -0.000000      0.097297
      5.64385      1.60400     14.60393         0.000012      0.002354     -0.004519
      2.82192      1.62924     14.56857        -0.000004      0.000009     -0.007637
      7.07666      4.08571     14.60393        -0.002015     -0.001195     -0.004535
      4.21103      4.08572     14.60393         0.002017     -0.001181     -0.004571
      2.82192      4.88771     17.11941        -0.000015     -0.000010      0.026623
      5.64384      4.88450     16.85151         0.000010      0.000248      0.021079
      7.05202      2.44546     16.85151         0.000196     -0.000113      0.020941
      4.23567      2.44546     16.85148        -0.000215     -0.000131      0.021130
      8.46576      4.88771     18.96824         0.000018      0.000009     -0.007050
      8.46576      4.88771     20.13183        -0.000004     -0.000005     -0.003850
 -----------------------------------------------------------------------------------
    total drift:                               -0.000015      0.000006     -0.019950


--------------------------------------------------------------------------------------------------------



  FREE ENERGIE OF THE ION-ELECTRON SYSTEM (eV)
  ---------------------------------------------------
  free  energy   TOTEN  =       -98.73879730 eV

  energy  without entropy=      -98.70590595  energy(sigma->0) =      -98.72783352
 


--------------------------------------------------------------------------------------------------------


    POTLOK:  cpu time    0.0724: real time    0.0723


--------------------------------------------------------------------------------------------------------


     LOOP+:  cpu time  158.8492: real time  158.8828
    4ORBIT:  cpu time    0.0000: real time    0.0000

volume of typ            1:    30.5 %

volume of typ            2:     0.3 %

volume of typ            3:     0.3 %
 
total charge     
 
# of ion       s       p       d       tot
------------------------------------------
    1        0.570   0.387   7.864   8.822
    2        0.569   0.386   7.869   8.824
    3        0.569   0.386   7.869   8.824
    4        0.569   0.386   7.869   8.824
    5        0.561   0.503   7.873   8.937
    6        0.561   0.503   7.873   8.937
    7        0.561   0.503   7.873   8.937
    8        0.550   0.486   7.903   8.939
    9        0.562   0.500   7.873   8.935
   10        0.564   0.510   7.877   8.952
   11        0.562   0.500   7.873   8.935
   12        0.562   0.500   7.873   8.935
   13        0.631   0.635   7.856   9.122
   14        0.563   0.397   7.897   8.856
   15        0.563   0.397   7.897   8.856
   16        0.563   0.397   7.897   8.856
   17        0.833   1.421   0.092   2.347
   18        1.442   3.203   0.044   4.690
--------------------------------------------------
tot          11.35   12.00  126.17  149.53
 

 total amount of memory used by VASP MPI-rank0    54955. kBytes
=======================================================================

   base      :      30000. kBytes
   nonlr-proj:       2172. kBytes
   fftplans  :       2593. kBytes
   grid      :       4625. kBytes
   one-center:         77. kBytes
   wavefun   :      15488. kBytes
 
  
  
 General timing and accounting informations for this job:
 ========================================================
  
                  Total CPU time used (sec):      163.380
                            User time (sec):      158.139
                          System time (sec):        5.241
                         Elapsed time (sec):      163.589
  
                   Maximum memory used (kb):      102760.
                   Average memory used (kb):           0.
  
                          Minor page faults:        47221
                          Major page faults:            8
                 Voluntary context switches:          514
