PROCAR new format
# of k-points:   13         # of bands:  104         # of ions:   18

 k-point     1 :    0.00000000 0.00000000 0.00000000     weight = 0.04000000

band     1 # energy  -23.77192657 # occ.  2.00000000
 
ion      s      p      d    tot
    1  0.000  0.000  0.000  0.000
    2  0.000  0.000  0.000  0.000
    3  0.000  0.000  0.000  0.000
    4  0.000  0.000  0.000  0.000
    5  0.000  0.000  0.000  0.000
    6  0.000  0.000  0.000  0.000
    7  0.000  0.000  0.000  0.000
    8  0.000  0.000  0.000  0.000
    9  0.000  0.000  0.000  0.000
   10  0.000  0.000  0.000  0.000
   11  0.000  0.000  0.000  0.000
   12  0.000  0.000  0.000  0.000
   13  0.000  0.000  0.000  0.001
   14  0.000  0.000  0.000  0.000
   15  0.000  0.000  0.000  0.000
   16  0.000  0.000  0.000  0.000
   17  0.137  0.103  0.015  0.255
   18  0.559  0.084  0.005  0.648
tot    0.696  0.187  0.021  0.904
 
band     2 # energy  -10.13587112 # occ.  2.00000000
 
ion      s      p      d    tot
    1  0.000  0.000  0.000  0.000
    2  0.000  0.000  0.000  0.000
    3  0.000  0.000  0.000  0.000
    4  0.000  0.000  0.000  0.000
    5  0.001  0.000  0.000  0.001
    6  0.001  0.000  0.000  0.001
    7  0.001  0.000  0.000  0.001
    8  0.001  0.000  0.000  0.001
    9  0.004  0.000  0.001  0.005
   10  0.002  0.000  0.000  0.002
   11  0.004  0.000  0.001  0.005
   12  0.004  0.000  0.001  0.005
   13  0.100  0.039  0.157  0.296
   14  0.004  0.000  0.000  0.004
   15  0.004  0.000  0.000  0.004
   16  0.004  0.000  0.000  0.004
   17  0.246  0.042  0.000  0.288
   18  0.085  0.071  0.001  0.157
tot    0.460  0.153  0.162  0.775
 
band     3 # energy   -8.88819661 # occ.  2.00000000
 
ion      s      p      d    tot
    1  0.017  0.002  0.000  0.019
    2  0.017  0.002  0.000  0.019
    3  0.017  0.002  0.000  0.019
    4  0.017  0.002  0.000  0.019
    5  0.070  0.001  0.000  0.070
    6  0.070  0.001  0.000  0.070
    7  0.070  0.001  0.000  0.070
    8  0.065  0.000  0.001  0.066
    9  0.065  0.001  0.001  0.066
   10  0.070  0.001  0.000  0.071
   11  0.065  0.001  0.001  0.066
   12  0.065  0.001  0.001  0.066
   13  0.004  0.005  0.005  0.014
   14  0.016  0.002  0.000  0.018
   15  0.016  0.002  0.000  0.018
   16  0.016  0.002  0.000  0.018
   17  0.010  0.000  0.000  0.010
   18  0.007  0.013  0.000  0.019
tot    0.674  0.036  0.009  0.719
 
band     4 # energy   -7.70805914 # occ.  2.00000000
 
ion      s      p      d    tot
    1  0.034  0.001  0.002  0.037
    2  0.034  0.001  0.002  0.037
    3  0.034  0.001  0.002  0.037
    4  0.034  0.001  0.002  0.037
    5  0.029  0.003  0.004  0.036
    6  0.029  0.003  0.004  0.036
    7  0.029  0.003  0.004  0.036
    8  0.026  0.003  0.004  0.034
    9  0.019  0.004  0.003  0.026
   10  0.015  0.004  0.003  0.023
   11  0.019  0.004  0.003  0.026
   12  0.019  0.004  0.003  0.026
   13  0.050  0.000  0.003  0.053
   14  0.034  0.001  0.002  0.036
   15  0.034  0.001  0.002  0.036
   16  0.034  0.001  0.002  0.036
   17  0.005  0.035  0.000  0.040
   18  0.026  0.119  0.002  0.146
tot    0.502  0.192  0.047  0.740
 
band     5 # energy   -7.31572620 # occ.  2.00000000
 
ion      s      p      d    tot
    1  0.010  0.000  0.001  0.012
    2  0.011  0.000  0.001  0.013
    3  0.011  0.000  0.001  0.013
    4  0.011  0.000  0.001  0.013
    5  0.002  0.002  0.002  0.006
    6  0.002  0.002  0.002  0.006
    7  0.002  0.002  0.002  0.006
    8  0.006  0.001  0.000  0.008
    9  0.010  0.000  0.009  0.019
   10  0.022  0.001  0.002  0.025
   11  0.010  0.000  0.009  0.019
   12  0.010  0.000  0.009  0.019
   13  0.009  0.017  0.157  0.184
   14  0.013  0.001  0.001  0.015
   15  0.013  0.001  0.001  0.015
   16  0.013  0.001  0.001  0.015
   17  0.000  0.141  0.001  0.142
   18  0.043  0.269  0.003  0.315
tot    0.201  0.440  0.202  0.843
 
band     6 # energy   -6.60612798 # occ.  2.00000000
 
ion      s      p      d    tot
    1  0.000  0.000  0.000  0.000
    2  0.000  0.000  0.000  0.000
    3  0.000  0.000  0.000  0.000
    4  0.000  0.000  0.000  0.000
    5  0.000  0.000  0.000  0.001
    6  0.000  0.000  0.002  0.002
    7  0.000  0.000  0.002  0.002
    8  0.000  0.000  0.002  0.002
    9  0.001  0.000  0.005  0.007
   10  0.000  0.000  0.006  0.006
   11  0.005  0.000  0.002  0.008
   12  0.001  0.000  0.005  0.007
   13  0.000  0.002  0.092  0.094
   14  0.000  0.000  0.010  0.010
   15  0.000  0.000  0.009  0.009
   16  0.000  0.000  0.001  0.001
   17  0.000  0.162  0.004  0.166
   18  0.000  0.347  0.005  0.352
tot    0.009  0.512  0.145  0.667
 
band     7 # energy   -6.60597533 # occ.  2.00000000
 
ion      s      p      d    tot
    1  0.000  0.000  0.000  0.000
    2  0.000  0.000  0.000  0.000
    3  0.000  0.000  0.000  0.000
    4  0.000  0.000  0.000  0.000
    5  0.000  0.000  0.002  0.002
    6  0.000  0.000  0.001  0.001
    7  0.000  0.000  0.001  0.001
    8  0.000  0.000  0.002  0.002
    9  0.004  0.000  0.003  0.007
   10  0.000  0.000  0.006  0.006
   11  0.000  0.000  0.006  0.006
   12  0.004  0.000  0.003  0.007
   13  0.000  0.002  0.092  0.094
   14  0.000  0.000  0.004  0.004
   15  0.000  0.000  0.004  0.004
   16  0.000  0.000  0.012  0.012
   17  0.000  0.162  0.004  0.166
   18  0.000  0.347  0.005  0.352
tot    0.009  0.512  0.145  0.667
 
band     8 # energy   -6.59043660 # occ.  2.00000000
 
ion      s      p      d    tot
    1  0.024  0.000  0.010  0.034
    2  0.023  0.000  0.011  0.034
    3  0.023  0.000  0.011  0.034
    4  0.023  0.000  0.011  0.034
    5  0.002  0.004  0.001  0.006
    6  0.002  0.004  0.001  0.006
    7  0.002  0.004  0.001  0.006
    8  0.002  0.004  0.000  0.006
    9  0.019  0.003  0.030  0.052
   10  0.018  0.003  0.030  0.051
   11  0.019  0.003  0.030  0.052
   12  0.019  0.003  0.030  0.052
   13  0.051  0.001  0.080  0.132
   14  0.056  0.000  0.040  0.097
   15  0.056  0.000  0.040  0.097
   16  0.056  0.000  0.040  0.097
   17  0.001  0.001  0.000  0.001
   18  0.000  0.000  0.000  0.000
tot    0.394  0.030  0.364  0.788
 
band     9 # energy   -6.44175890 # occ.  2.00000000
 
ion      s      p      d    tot
    1  0.041  0.000  0.037  0.078
    2  0.039  0.000  0.036  0.075
    3  0.039  0.000  0.036  0.075
    4  0.039  0.000  0.036  0.075
    5  0.023  0.001  0.064  0.088
    6  0.023  0.001  0.064  0.088
    7  0.023  0.001  0.064  0.088
    8  0.023  0.001  0.054  0.077
    9  0.007  0.000  0.029  0.036
   10  0.009  0.001  0.032  0.041
   11  0.007  0.000  0.029  0.036
   12  0.007  0.000  0.029  0.036
   13  0.004  0.000  0.005  0.009
   14  0.002  0.000  0.006  0.008
   15  0.002  0.000  0.006  0.008
   16  0.002  0.000  0.006  0.008
   17  0.000  0.000  0.000  0.000
   18  0.000  0.000  0.000  0.000
tot    0.292  0.007  0.533  0.831
 
band    10 # energy   -6.19429279 # occ.  2.00000000
 
ion      s      p      d    tot
    1  0.000  0.001  0.015  0.016
    2  0.004  0.001  0.011  0.016
    3  0.001  0.001  0.014  0.016
    4  0.009  0.002  0.005  0.017
    5  0.056  0.001  0.023  0.080
    6  0.007  0.000  0.075  0.083
    7  0.023  0.001  0.058  0.082
    8  0.000  0.000  0.076  0.076
    9  0.021  0.000  0.072  0.094
   10  0.000  0.000  0.108  0.108
   11  0.052  0.001  0.021  0.073
   12  0.007  0.000  0.096  0.103
   13  0.000  0.001  0.012  0.013
   14  0.006  0.002  0.012  0.019
   15  0.002  0.001  0.014  0.016
   16  0.014  0.003  0.008  0.025
   17  0.000  0.004  0.000  0.005
   18  0.000  0.013  0.000  0.014
tot    0.202  0.033  0.620  0.855
 
band    11 # energy   -6.19427713 # occ.  2.00000000
 
ion      s      p      d    tot
    1  0.000  0.001  0.015  0.016
    2  0.006  0.002  0.009  0.016
    3  0.008  0.002  0.006  0.017
    4  0.000  0.001  0.015  0.016
    5  0.001  0.000  0.081  0.083
    6  0.050  0.001  0.029  0.080
    7  0.034  0.001  0.046  0.081
    8  0.000  0.000  0.076  0.076
    9  0.032  0.001  0.054  0.087
   10  0.000  0.000  0.108  0.108
   11  0.001  0.000  0.105  0.107
   12  0.046  0.001  0.030  0.077
   13  0.000  0.001  0.012  0.013
   14  0.009  0.002  0.010  0.021
   15  0.013  0.003  0.009  0.024
   16  0.000  0.001  0.014  0.015
   17  0.000  0.004  0.000  0.005
   18  0.000  0.013  0.000  0.014
tot    0.202  0.033  0.620  0.855
 
band    12 # energy   -6.14492891 # occ.  2.00000000
 
ion      s      p      d    tot
    1  0.015  0.003  0.006  0.024
    2  0.002  0.001  0.013  0.015
    3  0.002  0.001  0.013  0.015
    4  0.002  0.001  0.013  0.015
    5  0.005  0.001  0.091  0.097
    6  0.005  0.001  0.091  0.097
    7  0.005  0.001  0.091  0.097
    8  0.044  0.001  0.007  0.051
    9  0.011  0.000  0.080  0.092
   10  0.073  0.001  0.017  0.091
   11  0.011  0.000  0.080  0.092
   12  0.011  0.000  0.080  0.092
   13  0.001  0.005  0.003  0.009
   14  0.000  0.002  0.018  0.020
   15  0.000  0.002  0.018  0.020
   16  0.000  0.002  0.018  0.020
   17  0.001  0.004  0.000  0.005
   18  0.000  0.004  0.000  0.004
tot    0.190  0.026  0.640  0.856
 
band    13 # energy   -6.05562233 # occ.  2.00000000
 
ion      s      p      d    tot
    1  0.000  0.000  0.002  0.003
    2  0.000  0.001  0.016  0.017
    3  0.000  0.001  0.016  0.017
    4  0.000  0.001  0.016  0.017
    5  0.004  0.000  0.118  0.122
    6  0.004  0.000  0.118  0.122
    7  0.004  0.000  0.118  0.122
    8  0.046  0.000  0.004  0.049
    9  0.001  0.001  0.090  0.092
   10  0.012  0.000  0.011  0.022
   11  0.001  0.001  0.090  0.092
   12  0.001  0.001  0.090  0.092
   13  0.004  0.001  0.004  0.009
   14  0.000  0.001  0.021  0.022
   15  0.000  0.001  0.021  0.022
   16  0.000  0.001  0.021  0.022
   17  0.000  0.000  0.000  0.001
   18  0.000  0.000  0.000  0.000
tot    0.078  0.010  0.754  0.843
 
band    14 # energy   -6.00060809 # occ.  2.00000000
 
ion      s      p      d    tot
    1  0.000  0.001  0.019  0.020
    2  0.002  0.000  0.004  0.006
    3  0.000  0.001  0.017  0.018
    4  0.001  0.001  0.013  0.014
    5  0.009  0.000  0.076  0.085
    6  0.003  0.000  0.103  0.106
    7  0.021  0.000  0.021  0.042
    8  0.000  0.000  0.105  0.105
    9  0.021  0.000  0.023  0.045
   10  0.000  0.001  0.122  0.122
   11  0.009  0.000  0.077  0.086
   12  0.003  0.000  0.103  0.106
   13  0.000  0.001  0.016  0.017
   14  0.002  0.000  0.005  0.008
   15  0.000  0.001  0.019  0.020
   16  0.001  0.001  0.014  0.016
   17  0.000  0.004  0.000  0.004
   18  0.000  0.015  0.000  0.015
tot    0.071  0.027  0.738  0.836
 
band    15 # energy   -6.00059857 # occ.  2.00000000
 
ion      s      p      d    tot
    1  0.000  0.001  0.019  0.020
    2  0.000  0.001  0.018  0.019
    3  0.002  0.000  0.005  0.007
    4  0.001  0.000  0.010  0.011
    5  0.013  0.000  0.058  0.071
    6  0.019  0.000  0.030  0.049
    7  0.001  0.000  0.112  0.113
    8  0.000  0.000  0.105  0.105
    9  0.001  0.000  0.112  0.113
   10  0.000  0.001  0.122  0.122
   11  0.013  0.000  0.059  0.072
   12  0.019  0.000  0.032  0.052
   13  0.000  0.001  0.016  0.017
   14  0.000  0.001  0.020  0.022
   15  0.002  0.000  0.007  0.009
   16  0.001  0.001  0.011  0.013
   17  0.000  0.004  0.000  0.004
   18  0.000  0.015  0.000  0.015
tot    0.071  0.027  0.738  0.836
 
band    16 # energy   -5.58958143 # occ.  2.00000000
 
ion      s      p      d    tot
    1  0.000  0.001  0.007  0.007
    2  0.005  0.002  0.013  0.020
    3  0.000  0.001  0.007  0.008
    4  0.004  0.002  0.011  0.016
    5  0.000  0.001  0.092  0.093
    6  0.000  0.000  0.127  0.127
    7  0.000  0.001  0.075  0.077
    8  0.000  0.000  0.115  0.115
    9  0.000  0.001  0.072  0.073
   10  0.000  0.000  0.101  0.101
   11  0.000  0.001  0.081  0.082
   12  0.000  0.000  0.101  0.101
   13  0.000  0.001  0.010  0.011
   14  0.004  0.002  0.013  0.020
   15  0.000  0.001  0.011  0.012
   16  0.003  0.002  0.012  0.017
   17  0.000  0.001  0.000  0.002
   18  0.000  0.008  0.000  0.008
tot    0.018  0.026  0.847  0.892
 
band    17 # energy   -5.58957026 # occ.  2.00000000
 
ion      s      p      d    tot
    1  0.000  0.001  0.007  0.007
    2  0.001  0.001  0.007  0.009
    3  0.006  0.003  0.013  0.022
    4  0.003  0.001  0.009  0.013
    5  0.000  0.001  0.104  0.105
    6  0.000  0.002  0.069  0.071
    7  0.000  0.000  0.121  0.121
    8  0.000  0.000  0.115  0.115
    9  0.000  0.000  0.098  0.098
   10  0.000  0.000  0.101  0.101
   11  0.000  0.001  0.088  0.089
   12  0.000  0.001  0.068  0.070
   13  0.000  0.001  0.010  0.011
   14  0.001  0.001  0.011  0.013
   15  0.005  0.002  0.013  0.021
   16  0.002  0.002  0.012  0.016
   17  0.000  0.001  0.000  0.002
   18  0.000  0.008  0.000  0.008
tot    0.018  0.026  0.847  0.892
 
band    18 # energy   -5.52790868 # occ.  2.00000000
 
ion      s      p      d    tot
    1  0.003  0.002  0.009  0.014
    2  0.000  0.001  0.016  0.017
    3  0.000  0.001  0.016  0.017
    4  0.000  0.001  0.016  0.017
    5  0.001  0.000  0.078  0.079
    6  0.001  0.000  0.078  0.079
    7  0.001  0.000  0.078  0.079
    8  0.003  0.001  0.068  0.072
    9  0.000  0.001  0.125  0.126
   10  0.000  0.001  0.071  0.072
   11  0.000  0.001  0.125  0.126
   12  0.000  0.001  0.125  0.126
   13  0.000  0.006  0.001  0.007
   14  0.000  0.001  0.016  0.017
   15  0.000  0.001  0.016  0.017
   16  0.000  0.001  0.016  0.017
   17  0.001  0.003  0.000  0.005
   18  0.000  0.003  0.000  0.003
tot    0.011  0.024  0.856  0.891
 
band    19 # energy   -5.42300898 # occ.  2.00000000
 
ion      s      p      d    tot
    1  0.000  0.000  0.023  0.023
    2  0.001  0.000  0.014  0.015
    3  0.002  0.000  0.008  0.010
    4  0.000  0.000  0.022  0.022
    5  0.000  0.000  0.038  0.039
    6  0.008  0.000  0.009  0.018
    7  0.005  0.000  0.021  0.027
    8  0.000  0.000  0.037  0.037
    9  0.000  0.002  0.016  0.018
   10  0.000  0.002  0.012  0.014
   11  0.000  0.002  0.012  0.014
   12  0.000  0.002  0.018  0.021
   13  0.000  0.000  0.214  0.214
   14  0.024  0.000  0.103  0.126
   15  0.039  0.000  0.051  0.091
   16  0.002  0.000  0.172  0.174
   17  0.000  0.000  0.000  0.000
   18  0.000  0.000  0.000  0.000
tot    0.083  0.011  0.770  0.863
 
band    20 # energy   -5.42298634 # occ.  2.00000000
 
ion      s      p      d    tot
    1  0.000  0.000  0.023  0.023
    2  0.001  0.000  0.015  0.016
    3  0.000  0.000  0.021  0.022
    4  0.002  0.000  0.007  0.009
    5  0.009  0.000  0.008  0.017
    6  0.001  0.000  0.037  0.038
    7  0.004  0.000  0.024  0.029
    8  0.000  0.000  0.037  0.037
    9  0.000  0.002  0.015  0.017
   10  0.000  0.002  0.012  0.014
   11  0.000  0.002  0.019  0.021
   12  0.000  0.002  0.012  0.015
   13  0.000  0.000  0.214  0.214
   14  0.020  0.000  0.115  0.135
   15  0.004  0.000  0.166  0.170
   16  0.041  0.000  0.045  0.087
   17  0.000  0.000  0.000  0.000
   18  0.000  0.000  0.000  0.000
tot    0.083  0.011  0.770  0.863
 
band    21 # energy   -5.39493839 # occ.  2.00000000
 
ion      s      p      d    tot
    1  0.009  0.000  0.012  0.021
    2  0.001  0.000  0.048  0.049
    3  0.001  0.000  0.048  0.049
    4  0.001  0.000  0.048  0.049
    5  0.000  0.000  0.041  0.041
    6  0.000  0.000  0.041  0.041
    7  0.000  0.000  0.041  0.041
    8  0.004  0.000  0.022  0.026
    9  0.000  0.001  0.017  0.019
   10  0.000  0.002  0.009  0.012
   11  0.000  0.001  0.017  0.019
   12  0.000  0.001  0.017  0.019
   13  0.032  0.003  0.029  0.063
   14  0.006  0.000  0.133  0.139
   15  0.006  0.000  0.133  0.139
   16  0.006  0.000  0.133  0.139
   17  0.000  0.001  0.000  0.001
   18  0.000  0.000  0.000  0.000
tot    0.069  0.012  0.786  0.866
 
band    22 # energy   -5.30880793 # occ.  2.00000000
 
ion      s      p      d    tot
    1  0.000  0.000  0.199  0.200
    2  0.004  0.000  0.184  0.189
    3  0.049  0.001  0.043  0.092
    4  0.024  0.000  0.122  0.146
    5  0.002  0.003  0.011  0.016
    6  0.005  0.003  0.019  0.027
    7  0.000  0.003  0.004  0.007
    8  0.000  0.003  0.002  0.005
    9  0.001  0.000  0.019  0.020
   10  0.000  0.000  0.020  0.021
   11  0.005  0.001  0.012  0.018
   12  0.010  0.001  0.004  0.016
   13  0.000  0.000  0.036  0.037
   14  0.001  0.001  0.028  0.029
   15  0.007  0.000  0.005  0.012
   16  0.003  0.001  0.018  0.022
   17  0.000  0.001  0.000  0.001
   18  0.000  0.006  0.000  0.006
tot    0.112  0.024  0.727  0.863
 
band    23 # energy   -5.30879899 # occ.  2.00000000
 
ion      s      p      d    tot
    1  0.000  0.000  0.199  0.200
    2  0.047  0.001  0.048  0.096
    3  0.003  0.000  0.190  0.193
    4  0.027  0.000  0.111  0.139
    5  0.003  0.003  0.012  0.017
    6  0.000  0.003  0.003  0.006
    7  0.005  0.003  0.019  0.026
    8  0.000  0.003  0.002  0.005
    9  0.010  0.001  0.005  0.016
   10  0.000  0.000  0.020  0.021
   11  0.006  0.001  0.011  0.018
   12  0.001  0.000  0.020  0.020
   13  0.000  0.000  0.036  0.037
   14  0.007  0.000  0.006  0.013
   15  0.000  0.001  0.029  0.030
   16  0.004  0.001  0.016  0.020
   17  0.000  0.001  0.000  0.001
   18  0.000  0.006  0.000  0.006
tot    0.112  0.024  0.727  0.863
 
band    24 # energy   -5.29326610 # occ.  2.00000000
 
ion      s      p      d    tot
    1  0.052  0.001  0.007  0.060
    2  0.006  0.000  0.148  0.154
    3  0.006  0.000  0.148  0.154
    4  0.006  0.000  0.148  0.154
    5  0.001  0.003  0.007  0.011
    6  0.001  0.003  0.007  0.011
    7  0.001  0.003  0.007  0.011
    8  0.007  0.004  0.009  0.019
    9  0.002  0.001  0.016  0.019
   10  0.012  0.004  0.003  0.019
   11  0.002  0.001  0.016  0.019
   12  0.002  0.001  0.016  0.019
   13  0.013  0.002  0.011  0.025
   14  0.003  0.001  0.060  0.063
   15  0.003  0.001  0.060  0.063
   16  0.003  0.001  0.060  0.063
   17  0.000  0.000  0.000  0.001
   18  0.000  0.000  0.000  0.000
tot    0.119  0.023  0.722  0.864
 
band    25 # energy   -4.57484417 # occ.  2.00000000
 
ion      s      p      d    tot
    1  0.000  0.002  0.071  0.074
    2  0.000  0.002  0.070  0.073
    3  0.000  0.002  0.037  0.039
    4  0.000  0.002  0.040  0.042
    5  0.001  0.004  0.030  0.035
    6  0.001  0.004  0.027  0.033
    7  0.000  0.003  0.055  0.058
    8  0.000  0.003  0.052  0.054
    9  0.000  0.005  0.031  0.036
   10  0.000  0.005  0.028  0.033
   11  0.001  0.006  0.016  0.023
   12  0.001  0.007  0.015  0.022
   13  0.000  0.001  0.138  0.139
   14  0.000  0.003  0.076  0.079
   15  0.001  0.002  0.033  0.035
   16  0.001  0.002  0.037  0.040
   17  0.000  0.001  0.002  0.003
   18  0.000  0.035  0.000  0.035
tot    0.007  0.089  0.757  0.853
 
band    26 # energy   -4.57484063 # occ.  2.00000000
 
ion      s      p      d    tot
    1  0.000  0.002  0.071  0.074
    2  0.000  0.002  0.028  0.030
    3  0.000  0.002  0.061  0.064
    4  0.000  0.002  0.058  0.060
    5  0.001  0.003  0.045  0.049
    6  0.000  0.003  0.047  0.051
    7  0.002  0.005  0.020  0.026
    8  0.000  0.003  0.052  0.054
    9  0.001  0.007  0.010  0.018
   10  0.000  0.005  0.028  0.033
   11  0.000  0.006  0.025  0.031
   12  0.000  0.005  0.027  0.032
   13  0.000  0.001  0.138  0.139
   14  0.001  0.002  0.021  0.024
   15  0.000  0.003  0.064  0.067
   16  0.000  0.003  0.060  0.063
   17  0.000  0.001  0.002  0.003
   18  0.000  0.035  0.000  0.035
tot    0.007  0.089  0.757  0.853
 
band    27 # energy   -4.48003555 # occ.  2.00000000
 
ion      s      p      d    tot
    1  0.001  0.002  0.025  0.027
    2  0.000  0.002  0.074  0.077
    3  0.000  0.002  0.074  0.077
    4  0.000  0.002  0.074  0.077
    5  0.000  0.004  0.047  0.051
    6  0.000  0.004  0.047  0.051
    7  0.000  0.004  0.047  0.051
    8  0.002  0.008  0.007  0.017
    9  0.000  0.005  0.047  0.052
   10  0.001  0.007  0.013  0.021
   11  0.000  0.005  0.047  0.052
   12  0.000  0.005  0.047  0.052
   13  0.000  0.005  0.003  0.008
   14  0.000  0.002  0.079  0.081
   15  0.000  0.002  0.079  0.081
   16  0.000  0.002  0.079  0.081
   17  0.001  0.002  0.000  0.002
   18  0.000  0.001  0.000  0.001
tot    0.005  0.064  0.791  0.860
 
band    28 # energy   -3.76241337 # occ.  2.00000000
 
ion      s      p      d    tot
    1  0.000  0.001  0.067  0.068
    2  0.000  0.001  0.060  0.060
    3  0.000  0.000  0.050  0.050
    4  0.000  0.000  0.010  0.010
    5  0.001  0.009  0.002  0.012
    6  0.000  0.005  0.002  0.007
    7  0.000  0.004  0.002  0.006
    8  0.000  0.003  0.002  0.005
    9  0.000  0.001  0.061  0.062
   10  0.000  0.000  0.099  0.099
   11  0.000  0.004  0.031  0.035
   12  0.000  0.001  0.055  0.057
   13  0.000  0.000  0.233  0.233
   14  0.000  0.000  0.045  0.046
   15  0.000  0.001  0.043  0.044
   16  0.000  0.002  0.036  0.038
   17  0.000  0.000  0.002  0.002
   18  0.000  0.036  0.000  0.036
tot    0.002  0.069  0.800  0.870
 
band    29 # energy   -3.76239580 # occ.  2.00000000
 
ion      s      p      d    tot
    1  0.000  0.001  0.067  0.068
    2  0.000  0.000  0.020  0.020
    3  0.000  0.000  0.030  0.030
    4  0.000  0.001  0.070  0.070
    5  0.000  0.003  0.002  0.005
    6  0.001  0.007  0.002  0.010
    7  0.001  0.008  0.002  0.011
    8  0.000  0.003  0.002  0.005
    9  0.000  0.003  0.037  0.040
   10  0.000  0.000  0.099  0.099
   11  0.000  0.000  0.067  0.067
   12  0.000  0.003  0.043  0.046
   13  0.000  0.000  0.233  0.233
   14  0.000  0.002  0.038  0.040
   15  0.000  0.002  0.039  0.041
   16  0.000  0.000  0.047  0.047
   17  0.000  0.000  0.002  0.002
   18  0.000  0.036  0.000  0.036
tot    0.002  0.069  0.800  0.870
 
band    30 # energy   -3.50921452 # occ.  2.00000000
 
ion      s      p      d    tot
    1  0.000  0.001  0.023  0.024
    2  0.000  0.000  0.096  0.097
    3  0.000  0.000  0.096  0.097
    4  0.000  0.000  0.096  0.097
    5  0.000  0.003  0.027  0.030
    6  0.000  0.003  0.027  0.030
    7  0.000  0.003  0.027  0.030
    8  0.001  0.012  0.007  0.019
    9  0.000  0.002  0.035  0.037
   10  0.001  0.012  0.014  0.027
   11  0.000  0.002  0.035  0.037
   12  0.000  0.002  0.035  0.037
   13  0.001  0.004  0.009  0.013
   14  0.000  0.000  0.095  0.096
   15  0.000  0.000  0.095  0.096
   16  0.000  0.000  0.095  0.096
   17  0.000  0.001  0.000  0.001
   18  0.000  0.001  0.000  0.001
tot    0.005  0.047  0.812  0.864
 
band    31 # energy   -3.41467964 # occ.  2.00000000
 
ion      s      p      d    tot
    1  0.000  0.000  0.082  0.082
    2  0.000  0.000  0.079  0.079
    3  0.000  0.001  0.038  0.040
    4  0.000  0.001  0.070  0.070
    5  0.000  0.001  0.107  0.109
    6  0.001  0.000  0.126  0.128
    7  0.000  0.001  0.102  0.103
    8  0.000  0.001  0.076  0.077
    9  0.000  0.000  0.045  0.045
   10  0.000  0.000  0.030  0.030
   11  0.000  0.001  0.049  0.050
   12  0.000  0.002  0.064  0.067
   13  0.000  0.000  0.024  0.024
   14  0.000  0.000  0.002  0.002
   15  0.000  0.000  0.005  0.006
   16  0.000  0.000  0.003  0.003
   17  0.000  0.000  0.000  0.000
   18  0.000  0.000  0.000  0.000
tot    0.003  0.010  0.901  0.915
 
band    32 # energy   -3.41467492 # occ.  2.00000000
 
ion      s      p      d    tot
    1  0.000  0.000  0.082  0.082
    2  0.000  0.001  0.046  0.047
    3  0.000  0.000  0.086  0.086
    4  0.000  0.001  0.054  0.056
    5  0.001  0.001  0.116  0.118
    6  0.000  0.001  0.098  0.099
    7  0.001  0.001  0.121  0.123
    8  0.000  0.001  0.076  0.077
    9  0.000  0.002  0.060  0.063
   10  0.000  0.000  0.030  0.030
   11  0.000  0.002  0.056  0.058
   12  0.000  0.000  0.041  0.041
   13  0.000  0.000  0.024  0.024
   14  0.000  0.000  0.005  0.005
   15  0.000  0.000  0.001  0.001
   16  0.000  0.000  0.004  0.004
   17  0.000  0.000  0.000  0.000
   18  0.000  0.000  0.000  0.000
tot    0.003  0.010  0.901  0.915
 
band    33 # energy   -3.37985884 # occ.  2.00000000
 
ion      s      p      d    tot
    1  0.000  0.000  0.009  0.009
    2  0.001  0.000  0.040  0.041
    3  0.001  0.000  0.040  0.041
    4  0.001  0.000  0.040  0.041
    5  0.000  0.002  0.051  0.053
    6  0.000  0.002  0.051  0.053
    7  0.000  0.002  0.051  0.053
    8  0.001  0.001  0.181  0.183
    9  0.001  0.001  0.109  0.110
   10  0.000  0.000  0.017  0.017
   11  0.001  0.001  0.109  0.110
   12  0.001  0.001  0.109  0.110
   13  0.004  0.006  0.024  0.034
   14  0.000  0.000  0.017  0.017
   15  0.000  0.000  0.017  0.017
   16  0.000  0.000  0.017  0.017
   17  0.001  0.001  0.000  0.002
   18  0.000  0.002  0.000  0.002
tot    0.012  0.019  0.879  0.910
 
band    34 # energy   -3.34151229 # occ.  2.00000000
 
ion      s      p      d    tot
    1  0.002  0.001  0.019  0.022
    2  0.001  0.000  0.008  0.009
    3  0.001  0.000  0.008  0.009
    4  0.001  0.000  0.008  0.009
    5  0.001  0.003  0.118  0.121
    6  0.001  0.003  0.118  0.121
    7  0.001  0.003  0.118  0.121
    8  0.000  0.001  0.013  0.014
    9  0.001  0.002  0.071  0.073
   10  0.002  0.002  0.195  0.198
   11  0.001  0.002  0.071  0.073
   12  0.001  0.002  0.071  0.073
   13  0.000  0.000  0.002  0.003
   14  0.001  0.001  0.023  0.025
   15  0.001  0.001  0.023  0.025
   16  0.001  0.001  0.023  0.025
   17  0.000  0.000  0.000  0.000
   18  0.000  0.000  0.000  0.000
tot    0.013  0.023  0.888  0.924
 
band    35 # energy   -3.22216143 # occ.  2.00000000
 
ion      s      p      d    tot
    1  0.000  0.000  0.010  0.010
    2  0.000  0.000  0.009  0.009
    3  0.000  0.000  0.010  0.010
    4  0.000  0.000  0.009  0.009
    5  0.000  0.000  0.063  0.063
    6  0.000  0.000  0.072  0.072
    7  0.000  0.000  0.067  0.067
    8  0.000  0.000  0.063  0.063
    9  0.000  0.000  0.143  0.143
   10  0.000  0.000  0.137  0.137
   11  0.000  0.000  0.146  0.146
   12  0.000  0.000  0.140  0.140
   13  0.000  0.000  0.013  0.013
   14  0.000  0.000  0.017  0.017
   15  0.000  0.000  0.016  0.016
   16  0.000  0.000  0.019  0.019
   17  0.000  0.000  0.000  0.000
   18  0.000  0.000  0.000  0.000
tot    0.000  0.001  0.935  0.936
 
band    36 # energy   -3.22215941 # occ.  2.00000000
 
ion      s      p      d    tot
    1  0.000  0.000  0.010  0.010
    2  0.000  0.000  0.009  0.009
    3  0.000  0.000  0.009  0.009
    4  0.000  0.000  0.010  0.010
    5  0.000  0.000  0.072  0.072
    6  0.000  0.000  0.063  0.063
    7  0.000  0.000  0.067  0.068
    8  0.000  0.000  0.063  0.063
    9  0.000  0.000  0.143  0.143
   10  0.000  0.000  0.137  0.137
   11  0.000  0.000  0.140  0.140
   12  0.000  0.000  0.146  0.147
   13  0.000  0.000  0.013  0.013
   14  0.000  0.000  0.017  0.017
   15  0.000  0.000  0.019  0.019
   16  0.000  0.000  0.016  0.016
   17  0.000  0.000  0.000  0.000
   18  0.000  0.000  0.000  0.000
tot    0.000  0.001  0.935  0.936
 
band    37 # energy   -3.12444397 # occ.  2.00000000
 
ion      s      p      d    tot
    1  0.000  0.000  0.009  0.010
    2  0.000  0.000  0.009  0.009
    3  0.000  0.000  0.006  0.006
    4  0.000  0.000  0.003  0.003
    5  0.000  0.000  0.159  0.159
    6  0.000  0.000  0.144  0.144
    7  0.000  0.000  0.127  0.127
    8  0.000  0.000  0.117  0.117
    9  0.000  0.000  0.079  0.079
   10  0.000  0.000  0.101  0.101
   11  0.000  0.000  0.058  0.058
   12  0.000  0.000  0.069  0.069
   13  0.000  0.000  0.014  0.014
   14  0.000  0.000  0.014  0.015
   15  0.000  0.000  0.016  0.016
   16  0.000  0.000  0.017  0.018
   17  0.000  0.000  0.000  0.000
   18  0.000  0.000  0.000  0.000
tot    0.000  0.002  0.944  0.946
 
band    38 # energy   -3.12443789 # occ.  2.00000000
 
ion      s      p      d    tot
    1  0.000  0.000  0.010  0.010
    2  0.000  0.000  0.004  0.004
    3  0.000  0.000  0.006  0.006
    4  0.000  0.000  0.009  0.009
    5  0.000  0.000  0.127  0.127
    6  0.000  0.000  0.143  0.143
    7  0.000  0.000  0.159  0.159
    8  0.000  0.000  0.117  0.117
    9  0.000  0.000  0.058  0.058
   10  0.000  0.000  0.101  0.101
   11  0.000  0.000  0.079  0.079
   12  0.000  0.000  0.069  0.069
   13  0.000  0.000  0.014  0.014
   14  0.000  0.000  0.018  0.018
   15  0.000  0.000  0.015  0.016
   16  0.000  0.000  0.014  0.015
   17  0.000  0.000  0.000  0.000
   18  0.000  0.000  0.000  0.000
tot    0.000  0.002  0.943  0.946
 
band    39 # energy   -3.12440824 # occ.  2.00000000
 
ion      s      p      d    tot
    1  0.001  0.003  0.088  0.092
    2  0.001  0.003  0.085  0.089
    3  0.001  0.003  0.087  0.090
    4  0.001  0.003  0.086  0.090
    5  0.002  0.005  0.040  0.047
    6  0.002  0.005  0.040  0.047
    7  0.002  0.005  0.040  0.047
    8  0.002  0.008  0.036  0.046
    9  0.003  0.004  0.029  0.036
   10  0.003  0.003  0.039  0.044
   11  0.003  0.004  0.029  0.036
   12  0.003  0.004  0.028  0.035
   13  0.002  0.008  0.017  0.027
   14  0.001  0.004  0.047  0.051
   15  0.001  0.004  0.048  0.053
   16  0.001  0.004  0.048  0.052
   17  0.002  0.003  0.000  0.005
   18  0.000  0.002  0.000  0.002
tot    0.030  0.073  0.786  0.889
 
band    40 # energy   -3.00065697 # occ.  2.00000000
 
ion      s      p      d    tot
    1  0.000  0.000  0.000  0.000
    2  0.000  0.000  0.022  0.023
    3  0.000  0.000  0.022  0.023
    4  0.000  0.000  0.022  0.023
    5  0.000  0.000  0.121  0.121
    6  0.000  0.000  0.120  0.120
    7  0.000  0.000  0.120  0.121
    8  0.000  0.000  0.000  0.000
    9  0.000  0.000  0.135  0.135
   10  0.000  0.000  0.000  0.000
   11  0.000  0.000  0.135  0.135
   12  0.000  0.000  0.135  0.135
   13  0.000  0.000  0.000  0.000
   14  0.000  0.001  0.033  0.033
   15  0.000  0.001  0.033  0.033
   16  0.000  0.001  0.033  0.034
   17  0.000  0.000  0.000  0.000
   18  0.000  0.000  0.000  0.000
tot    0.000  0.003  0.932  0.936
 
band    41 # energy   -2.99771875 # occ.  2.00000000
 
ion      s      p      d    tot
    1  0.000  0.000  0.030  0.031
    2  0.000  0.000  0.004  0.004
    3  0.000  0.001  0.020  0.021
    4  0.000  0.000  0.007  0.008
    5  0.000  0.000  0.036  0.036
    6  0.000  0.001  0.091  0.092
    7  0.000  0.000  0.021  0.022
    8  0.000  0.000  0.140  0.140
    9  0.000  0.000  0.044  0.045
   10  0.000  0.000  0.107  0.107