<?xml version="1.0" encoding="ISO-8859-1"?>
<modeling>
 <generator>
  <i name="program" type="string">vasp </i>
  <i name="version" type="string">5.4.4.18Apr17-6-g9f103f2a35  </i>
  <i name="subversion" type="string">(build Aug 07 2018 15:16:41) complex            parallel </i>
  <i name="platform" type="string">LinuxIFC </i>
  <i name="date" type="string">2019 10 18 </i>
  <i name="time" type="string">01:18:33 </i>
 </generator>
 <incar>
  <i type="string" name="PREC">normal</i>
  <i type="int" name="IBRION">     2</i>
  <i name="EDIFFG">     -0.03000000</i>
  <i type="int" name="NSW">     0</i>
  <i type="int" name="ISIF">     0</i>
  <i type="int" name="ISYM">     0</i>
  <i name="ENCUT">    350.00000000</i>
  <v name="RWIGS">      1.50000000      0.80000000      0.80000000</v>
  <i type="string" name="LREAL"> Auto</i>
  <i type="logical" name="LWAVE"> F  </i>
  <i type="logical" name="LCHARG"> F  </i>
  <i type="int" name="LORBIT">     0</i>
  <v type="int" name="KPOINT_BSE">    -1     0     0     0</v>
  <i type="string" name="GGA"> RP</i>
 </incar>
 <structure name="primitive_cell" >
  <crystal>
   <varray name="basis" >
    <v>       5.64384424       0.00000000       0.00000000 </v>
    <v>       2.82192212       4.88771248       0.00000000 </v>
    <v>       0.00000000       0.00000000      26.91226928 </v>
   </varray>
   <i name="volume">    742.38807929 </i>
   <varray name="rec_basis" >
    <v>       0.17718420      -0.10229734       0.00000000 </v>
    <v>       0.00000000       0.20459469       0.00000000 </v>
    <v>       0.00000000       0.00000000       0.03715777 </v>
   </varray>
  </crystal>
  <varray name="positions" >
   <v>       0.00000000       0.00000000       0.37157773 </v>
   <v>       0.16666667       0.16666667       0.45719258 </v>
   <v>       0.16666667      -0.33333333       0.45719258 </v>
   <v>      -0.33333333       0.16666667       0.45719258 </v>
   <v>       0.00000000      -0.50000000       0.37157773 </v>
   <v>      -0.50000000      -0.50000000       0.37157773 </v>
   <v>      -0.50000000       0.00000000       0.37157773 </v>
   <v>      -0.33333333      -0.33333333       0.45719258 </v>
   <v>       0.32816966      -0.16408436      -0.45735063 </v>
   <v>      -0.16408454       0.32816997      -0.45735056 </v>
   <v>      -0.16408492      -0.16408491      -0.45735040 </v>
   <v>       0.33333290       0.33333339      -0.45866434 </v>
   <v>       0.00000012      -0.00000035      -0.36388096 </v>
   <v>      -0.49967121      -0.49967155      -0.37383634 </v>
   <v>      -0.49967099      -0.00065827      -0.37383555 </v>
   <v>      -0.00065777      -0.49967143      -0.37383525 </v>
   <v>      -0.00000016      -0.00000054      -0.29518231 </v>
   <v>      -0.00000042      -0.00000046      -0.25194611 </v>
  </varray>
 </structure>
 <varray name="primitive_index" >
  <v type="int" >        1 </v>
  <v type="int" >        5 </v>
  <v type="int" >        7 </v>
  <v type="int" >        6 </v>
  <v type="int" >        3 </v>
  <v type="int" >        4 </v>
  <v type="int" >        2 </v>
  <v type="int" >        8 </v>
  <v type="int" >       12 </v>
  <v type="int" >        9 </v>
  <v type="int" >       11 </v>
  <v type="int" >       10 </v>
  <v type="int" >       13 </v>
  <v type="int" >       16 </v>
  <v type="int" >       14 </v>
  <v type="int" >       15 </v>
  <v type="int" >       17 </v>
  <v type="int" >       18 </v>
 </varray>
 <kpoints>
  <generation param="Monkhorst-Pack">
   <v type="int" name="divisions">       5        5        1 </v>
   <v name="usershift">      0.00000000       0.00000000       0.00000000 </v>
   <v name="genvec1">      0.20000000       0.00000000       0.00000000 </v>
   <v name="genvec2">      0.00000000       0.20000000       0.00000000 </v>
   <v name="genvec3">      0.00000000       0.00000000       1.00000000 </v>
   <v name="shift">      0.00000000       0.00000000       0.00000000 </v>
  </generation>
  <varray name="kpointlist" >
   <v>       0.00000000       0.00000000       0.00000000 </v>
   <v>       0.20000000       0.00000000       0.00000000 </v>
   <v>       0.40000000       0.00000000       0.00000000 </v>
   <v>       0.00000000       0.20000000       0.00000000 </v>
   <v>       0.20000000       0.20000000       0.00000000 </v>
   <v>       0.40000000       0.20000000       0.00000000 </v>
   <v>      -0.40000000       0.20000000       0.00000000 </v>
   <v>      -0.20000000       0.20000000       0.00000000 </v>
   <v>       0.00000000       0.40000000       0.00000000 </v>
   <v>       0.20000000       0.40000000       0.00000000 </v>
   <v>       0.40000000       0.40000000       0.00000000 </v>
   <v>      -0.40000000       0.40000000       0.00000000 </v>
   <v>      -0.20000000       0.40000000       0.00000000 </v>
  </varray>
  <varray name="weights" >
   <v>       0.04000000 </v>
   <v>       0.08000000 </v>
   <v>       0.08000000 </v>
   <v>       0.08000000 </v>
   <v>       0.08000000 </v>
   <v>       0.08000000 </v>
   <v>       0.08000000 </v>
   <v>       0.08000000 </v>
   <v>       0.08000000 </v>
   <v>       0.08000000 </v>
   <v>       0.08000000 </v>
   <v>       0.08000000 </v>
   <v>       0.08000000 </v>
  </varray>
 </kpoints>
 <parameters>
  <separator name="general" >
   <i type="string" name="SYSTEM">unknown system</i>
   <i type="logical" name="LCOMPAT"> F  </i>
  </separator>
  <separator name="electronic" >
   <i type="string" name="PREC">normal</i>
   <i name="ENMAX">    350.00000000</i>
   <i name="ENAUG">    644.87300000</i>
   <i name="EDIFF">      0.00010000</i>
   <i type="int" name="IALGO">    38</i>
   <i type="int" name="IWAVPR">    10</i>
   <i type="int" name="NBANDS">   104</i>
   <i name="NELECT">    170.00000000</i>
   <i type="int" name="TURBO">     0</i>
   <i type="int" name="IRESTART">     0</i>
   <i type="int" name="NREBOOT">     0</i>
   <i type="int" name="NMIN">     0</i>
   <i name="EREF">      0.00000000</i>
   <separator name="electronic smearing" >
    <i type="int" name="ISMEAR">     1</i>
    <i name="SIGMA">      0.20000000</i>
    <i name="KSPACING">      0.50000000</i>
    <i type="logical" name="KGAMMA"> T  </i>
   </separator>
   <separator name="electronic projectors" >
    <i type="logical" name="LREAL"> T  </i>
    <v name="ROPT">     -0.00050000     -0.00050000     -0.00050000</v>
    <i type="int" name="LMAXPAW">  -100</i>
    <i type="int" name="LMAXMIX">     2</i>
    <i type="logical" name="NLSPLINE"> F  </i>
   </separator>
   <separator name="electronic startup" >
    <i type="int" name="ISTART">     0</i>
    <i type="int" name="ICHARG">     2</i>
    <i type="int" name="INIWAV">     1</i>
   </separator>
   <separator name="electronic spin" >
    <i type="int" name="ISPIN">     1</i>
    <i type="logical" name="LNONCOLLINEAR"> F  </i>
    <v name="MAGMOM">      1.00000000      1.00000000      1.00000000      1.00000000      1.00000000      1.00000000      1.00000000      1.00000000      1.00000000      1.00000000      1.00000000      1.00000000      1.00000000      1.00000000      1.00000000      1.00000000      1.00000000      1.00000000</v>
    <i name="NUPDOWN">     -1.00000000</i>
    <i type="logical" name="LSORBIT"> F  </i>
    <v name="SAXIS">      0.00000000      0.00000000      1.00000000</v>
    <i type="logical" name="LSPIRAL"> F  </i>
    <v name="QSPIRAL">      0.00000000      0.00000000      0.00000000</v>
    <i type="logical" name="LZEROZ"> F  </i>
   </separator>
   <separator name="electronic exchange-correlation" >
    <i type="logical" name="LASPH"> F  </i>
    <i type="logical" name="LMETAGGA"> F  </i>
   </separator>
   <separator name="electronic convergence" >
    <i type="int" name="NELM">    60</i>
    <i type="int" name="NELMDL">    -5</i>
    <i type="int" name="NELMIN">     2</i>
    <i name="ENINI">    350.00000000</i>
    <separator name="electronic convergence detail" >
     <i type="logical" name="LDIAG"> T  </i>
     <i type="logical" name="LSUBROT"> F  </i>
     <i name="WEIMIN">      0.00000000</i>
     <i name="EBREAK">      0.00000024</i>
     <i name="DEPER">      0.30000000</i>
     <i type="int" name="NRMM">     4</i>
     <i name="TIME">      0.40000000</i>
    </separator>
   </separator>
   <separator name="electronic mixer" >
    <i name="AMIX">      0.40000000</i>
    <i name="BMIX">      1.00000000</i>
    <i name="AMIN">      0.10000000</i>
    <i name="AMIX_MAG">      1.60000000</i>
    <i name="BMIX_MAG">      1.00000000</i>
    <separator name="electronic mixer details" >
     <i type="int" name="IMIX">     4</i>
     <i type="logical" name="MIXFIRST"> F  </i>
     <i type="int" name="MAXMIX">   -45</i>
     <i name="WC">    100.00000000</i>
     <i type="int" name="INIMIX">     1</i>
     <i type="int" name="MIXPRE">     1</i>
     <i type="int" name="MREMOVE">     5</i>
    </separator>
   </separator>
   <separator name="electronic dipolcorrection" >
    <i type="logical" name="LDIPOL"> F  </i>
    <i type="logical" name="LMONO"> F  </i>
    <i type="int" name="IDIPOL">     0</i>
    <i name="EPSILON">      1.00000000</i>
    <v name="DIPOL">   -100.00000000   -100.00000000   -100.00000000</v>
    <i name="EFIELD">      0.00000000</i>
   </separator>
  </separator>
  <separator name="grids" >
   <i type="int" name="NGX">    28</i>
   <i type="int" name="NGY">    28</i>
   <i type="int" name="NGZ">   126</i>
   <i type="int" name="NGXF">    56</i>
   <i type="int" name="NGYF">    56</i>
   <i type="int" name="NGZF">   252</i>
   <i type="logical" name="ADDGRID"> F  </i>
  </separator>
  <separator name="ionic" >
   <i type="int" name="NSW">     0</i>
   <i type="int" name="IBRION">    -1</i>
   <i type="int" name="MDALGO">     0</i>
   <i type="int" name="ISIF">     0</i>
   <i name="PSTRESS">      0.00000000</i>
   <i name="EDIFFG">     -0.03000000</i>
   <i type="int" name="NFREE">     1</i>
   <i name="POTIM">      0.50000000</i>
   <i name="SMASS">     -3.00000000</i>
   <i name="SCALEE">      1.00000000</i>
  </separator>
  <separator name="ionic md" >
   <i name="TEBEG">      0.00010000</i>
   <i name="TEEND">      0.00010000</i>
   <i type="int" name="NBLOCK">     1</i>
   <i type="int" name="KBLOCK">     1</i>
   <i type="int" name="NPACO">   256</i>
   <i name="APACO">     16.00000000</i>
  </separator>
  <separator name="symmetry" >
   <i type="int" name="ISYM">     0</i>
   <i name="SYMPREC">      0.00001000</i>
  </separator>
  <separator name="dos" >
   <i type="int" name="LORBIT">     0</i>
   <v name="RWIGS">      1.50000000      0.80000000      0.80000000</v>
   <i type="int" name="NEDOS">   301</i>
   <i name="EMIN">     10.00000000</i>
   <i name="EMAX">    -10.00000000</i>
   <i name="EFERMI">      0.00000000</i>
  </separator>
  <separator name="writing" >
   <i type="int" name="NWRITE">     2</i>
   <i type="logical" name="LWAVE"> F  </i>
   <i type="logical" name="LDOWNSAMPLE"> F  </i>
   <i type="logical" name="LCHARG"> F  </i>
   <i type="logical" name="LPARD"> F  </i>
   <i type="logical" name="LVTOT"> F  </i>
   <i type="logical" name="LVHAR"> F  </i>
   <i type="logical" name="LELF"> F  </i>
   <i type="logical" name="LOPTICS"> F  </i>
   <v name="STM">      0.00000000      0.00000000      0.00000000      0.00000000      0.00000000      0.00000000      0.00000000</v>
  </separator>
  <separator name="performance" >
   <i type="int" name="NPAR">     4</i>
   <i type="int" name="NSIM">     4</i>
   <i type="int" name="NBLK">    -1</i>
   <i type="logical" name="LPLANE"> T  </i>
   <i type="logical" name="LSCALAPACK"> T  </i>
   <i type="logical" name="LSCAAWARE"> F  </i>
   <i type="logical" name="LSCALU"> F  </i>
   <i type="logical" name="LASYNC"> F  </i>
   <i type="logical" name="LORBITALREAL"> F  </i>
  </separator>
  <separator name="miscellaneous" >
   <i type="int" name="IDIOT">     3</i>
   <i type="int" name="ISPECIAL">     0</i>
   <i type="logical" name="LMUSIC"> F  </i>
   <v name="POMASS">    195.08000000     12.01100000     16.00000000</v>
   <v name="DARWINR">      0.00000000      0.00000000      0.00000000</v>
   <v name="DARWINV">      1.00000000      1.00000000      1.00000000</v>
   <i type="logical" name="LCORR"> T  </i>
  </separator>
  <i type="logical" name="GGA_COMPAT"> T  </i>
  <i type="logical" name="LBERRY"> F  </i>
  <i type="int" name="ICORELEVEL">     0</i>
  <i type="logical" name="LDAU"> F  </i>
  <i type="int" name="I_CONSTRAINED_M">     0</i>
  <separator name="electronic exchange-correlation" >
   <i type="string" name="GGA">RP</i>
   <i type="int" name="VOSKOWN">     0</i>
   <i type="logical" name="LHFCALC"> F  </i>
   <i type="string" name="PRECFOCK"></i>
   <i type="logical" name="LSYMGRAD"> F  </i>
   <i type="logical" name="LHFONE"> F  </i>
   <i type="logical" name="LRHFCALC"> F  </i>
   <i type="logical" name="LTHOMAS"> F  </i>
   <i type="logical" name="LMODELHF"> F  </i>
   <i name="ENCUT4O">     -1.00000000</i>
   <i type="int" name="EXXOEP">     0</i>
   <i type="int" name="FOURORBIT">     0</i>
   <i name="AEXX">      0.00000000</i>
   <i name="HFALPHA">      0.00000000</i>
   <i name="MCALPHA">      0.00000000</i>
   <i name="ALDAX">      1.00000000</i>
   <i name="AGGAX">      1.00000000</i>
   <i name="ALDAC">      1.00000000</i>
   <i name="AGGAC">      1.00000000</i>
   <i type="int" name="NKREDX">     1</i>
   <i type="int" name="NKREDY">     1</i>
   <i type="int" name="NKREDZ">     1</i>
   <i type="logical" name="SHIFTRED"> F  </i>
   <i type="logical" name="ODDONLY"> F  </i>
   <i type="logical" name="EVENONLY"> F  </i>
   <i type="int" name="LMAXFOCK">     0</i>
   <i type="int" name="NMAXFOCKAE">     0</i>
   <i type="logical" name="LFOCKAEDFT"> F  </i>
   <i name="HFSCREEN">      0.00000000</i>
   <i name="HFSCREENC">      0.00000000</i>
   <i type="int" name="NBANDSGWLOW">     0</i>
  </separator>
  <separator name="vdW DFT" >
   <i type="logical" name="LUSE_VDW"> F  </i>
   <i name="Zab_VDW">     -0.84910000</i>
   <i name="PARAM1">      0.12340000</i>
   <i name="PARAM2">      1.00000000</i>
   <i name="PARAM3">      0.00000000</i>
  </separator>
  <separator name="model GW" >
   <i type="int" name="MODEL_GW">     0</i>
   <i name="MODEL_EPS0">     24.74626931</i>
   <i name="MODEL_ALPHA">      1.00000000</i>
  </separator>
  <separator name="linear response parameters" >
   <i type="logical" name="LEPSILON"> F  </i>
   <i type="logical" name="LRPA"> F  </i>
   <i type="logical" name="LNABLA"> F  </i>
   <i type="logical" name="LVEL"> F  </i>
   <i type="int" name="KINTER">     0</i>
   <i name="CSHIFT">      0.10000000</i>
   <i name="OMEGAMAX">     -1.00000000</i>
   <i name="DEG_THRESHOLD">      0.00200000</i>
   <i name="RTIME">     -0.10000000</i>
   <i name="WPLASMAI">      0.00000000</i>
   <v name="DFIELD">      0.00000000      0.00000000      0.00000000</v>
   <v name="WPLASMA">      0.00000000      0.00000000      0.00000000      0.00000000      0.00000000      0.00000000      0.00000000      0.00000000      0.00000000</v>
  </separator>
  <separator name="orbital magnetization" >
   <i type="logical" name="NUCIND"> F  </i>
   <v name="MAGPOS">      0.00000000      0.00000000      0.00000000</v>
   <i type="logical" name="LNICSALL"> T  </i>
   <i type="logical" name="ORBITALMAG"> F  </i>
   <i type="logical" name="LMAGBLOCH"> F  </i>
   <i type="logical" name="LCHIMAG"> F  </i>
   <i type="logical" name="LGAUGE"> T  </i>
   <i type="int" name="MAGATOM">     0</i>
   <v name="MAGDIPOL">      0.00000000      0.00000000      0.00000000</v>
   <v name="AVECCONST">      0.00000000      0.00000000      0.00000000</v>
  </separator>
  <separator name="response functions" >
   <i type="logical" name="LADDER"> F  </i>
   <i type="logical" name="LRPAFORCE"> F  </i>
   <i type="logical" name="LFXC"> F  </i>
   <i type="logical" name="LHARTREE"> T  </i>
   <i type="int" name="IBSE">     0</i>
   <v type="int" name="KPOINT">    -1     0     0     0</v>
   <i type="logical" name="LTCTE"> F  </i>
   <i type="logical" name="LTETE"> F  </i>
   <i type="logical" name="LTRIPLET"> F  </i>
   <i type="logical" name="LFXCEPS"> F  </i>
   <i type="logical" name="LFXHEG"> F  </i>
   <i type="int" name="NATURALO">     2</i>
   <i type="logical" name="L2ORDER"> F  </i>
   <i type="logical" name="LMP2LT"> F  </i>
   <i type="logical" name="LUSEW"> F  </i>
   <i name="ENCUTGW">     -2.00000000</i>
   <i name="ENCUTGWSOFT">     -2.00000000</i>
   <i name="ENCUTLF">     -1.00000000</i>
   <i type="int" name="LMAXMP2">    -1</i>
   <i name="SCISSOR">      0.00000000</i>
   <i type="int" name="NOMEGA">     0</i>
   <i type="int" name="NOMEGAR">     0</i>
   <i type="int" name="NBANDSGW">    -1</i>
   <i type="int" name="NBANDSO">    -1</i>
   <i type="int" name="NBANDSV">    -1</i>
   <i type="int" name="NELM">     1</i>
   <i type="int" name="NELMHF">     1</i>
   <i type="int" name="DIM">     3</i>
   <i type="int" name="ANTIRES">     0</i>
   <i name="OMEGAMAX">    -30.00000000</i>
   <i name="OMEGAMIN">    -30.00000000</i>
   <i name="OMEGATL">   -200.00000000</i>
   <i type="int" name="OMEGAGRID">   140</i>
   <i name="CSHIFT">     -0.10000000</i>
   <i type="logical" name="SELFENERGY"> F  </i>
   <i type="logical" name="LSPECTRAL"> F  </i>
   <i type="logical" name="LSPECTRALGW"> F  </i>
   <i type="logical" name="LSINGLES"> F  </i>
   <i type="logical" name="LFERMIGW"> F  </i>
   <i type="logical" name="ODDONLYGW"> F  </i>
   <i type="logical" name="EVENONLYGW"> F  </i>
   <i type="int" name="NKREDLFX">     1</i>
   <i type="int" name="NKREDLFY">     1</i>
   <i type="int" name="NKREDLFZ">     1</i>
   <i type="int" name="MAXMEM">  2800</i>
   <i type="int" name="TELESCOPE">     0</i>
   <i type="int" name="TAUPAR">     1</i>
   <i type="int" name="OMEGAPAR">    -1</i>
   <i name="LAMBDA">      1.00000000</i>
  </separator>
  <separator name="External order field" >
   <i name="OFIELD_KAPPA">      0.00000000</i>
   <v name="OFIELD_K">      0.00000000      0.00000000      0.00000000</v>
   <i name="OFIELD_Q6_NEAR">      0.00000000</i>
   <i name="OFIELD_Q6_FAR">      0.00000000</i>
   <i name="OFIELD_A">      0.00000000</i>
  </separator>
 </parameters>
 <atominfo>
  <atoms>      18 </atoms>
  <types>       3 </types>
  <array name="atoms" >
   <dimension dim="1">ion</dimension>
   <field type="string">element</field>
   <field type="int">atomtype</field>
   <set>
    <rc><c>Pt</c><c>   1</c></rc>
    <rc><c>Pt</c><c>   1</c></rc>
    <rc><c>Pt</c><c>   1</c></rc>
    <rc><c>Pt</c><c>   1</c></rc>
    <rc><c>Pt</c><c>   1</c></rc>
    <rc><c>Pt</c><c>   1</c></rc>
    <rc><c>Pt</c><c>   1</c></rc>
    <rc><c>Pt</c><c>   1</c></rc>
    <rc><c>Pt</c><c>   1</c></rc>
    <rc><c>Pt</c><c>   1</c></rc>
    <rc><c>Pt</c><c>   1</c></rc>
    <rc><c>Pt</c><c>   1</c></rc>
    <rc><c>Pt</c><c>   1</c></rc>
    <rc><c>Pt</c><c>   1</c></rc>
    <rc><c>Pt</c><c>   1</c></rc>
    <rc><c>Pt</c><c>   1</c></rc>
    <rc><c>C </c><c>   2</c></rc>
    <rc><c>O </c><c>   3</c></rc>
   </set>
  </array>
  <array name="atomtypes" >
   <dimension dim="1">type</dimension>
   <field type="int">atomspertype</field>
   <field type="string">element</field>
   <field>mass</field>
   <field>valence</field>
   <field type="string">pseudopotential</field>
   <set>
    <rc><c>  16</c><c>Pt</c><c>    195.08000000</c><c>     10.00000000</c><c>  PAW_PBE Pt 04Feb2005                  </c></rc>
    <rc><c>   1</c><c>C </c><c>     12.01100000</c><c>      4.00000000</c><c>  PAW_PBE C 08Apr2002                   </c></rc>
    <rc><c>   1</c><c>O </c><c>     16.00000000</c><c>      6.00000000</c><c>  PAW_PBE O 08Apr2002                   </c></rc>
   </set>
  </array>
 </atominfo>
 <structure name="initialpos" >
  <crystal>
   <varray name="basis" >
    <v>       5.64384424       0.00000000       0.00000000 </v>
    <v>       2.82192212       4.88771248       0.00000000 </v>
    <v>       0.00000000       0.00000000      26.91226928 </v>
   </varray>
   <i name="volume">    742.38807929 </i>
   <varray name="rec_basis" >
    <v>       0.17718420      -0.10229734       0.00000000 </v>
    <v>       0.00000000       0.20459469       0.00000000 </v>
    <v>       0.00000000       0.00000000       0.03715777 </v>
   </varray>
  </crystal>
  <varray name="positions" >
   <v>       0.00000000       0.00000000       0.37157773 </v>
   <v>       0.50000000       0.00000000       0.37157773 </v>
   <v>       0.00000000       0.50000000       0.37157773 </v>
   <v>       0.50000000       0.50000000       0.37157773 </v>
   <v>       0.16666667       0.16666667       0.45719258 </v>
   <v>       0.66666667       0.16666667       0.45719258 </v>
   <v>       0.16666667       0.66666667       0.45719258 </v>
   <v>       0.66666667       0.66666667       0.45719258 </v>
   <v>       0.83591546       0.32816997       0.54264944 </v>
   <v>       0.33333290       0.33333339       0.54133566 </v>
   <v>       0.83591508       0.83591509       0.54264960 </v>
   <v>       0.32816966       0.83591564       0.54264937 </v>
   <v>       0.00000012       0.99999965       0.63611904 </v>
   <v>       0.50032901       0.99934173       0.62616445 </v>
   <v>       0.99934223       0.50032857       0.62616475 </v>
   <v>       0.50032879       0.50032845       0.62616366 </v>
   <v>       0.99999984       0.99999946       0.70481769 </v>
   <v>       0.99999958       0.99999954       0.74805389 </v>
  </varray>
  <varray name="selective"  type="logical" >
   <v type="logical" >  F  F  F </v>
   <v type="logical" >  F  F  F </v>
   <v type="logical" >  F  F  F </v>
   <v type="logical" >  F  F  F </v>
   <v type="logical" >  F  F  F </v>
   <v type="logical" >  F  F  F </v>
   <v type="logical" >  F  F  F </v>
   <v type="logical" >  F  F  F </v>
   <v type="logical" >  T  T  T </v>
   <v type="logical" >  T  T  T </v>
   <v type="logical" >  T  T  T </v>
   <v type="logical" >  T  T  T </v>
   <v type="logical" >  T  T  T </v>
   <v type="logical" >  T  T  T </v>
   <v type="logical" >  T  T  T </v>
   <v type="logical" >  T  T  T </v>
   <v type="logical" >  T  T  T </v>
   <v type="logical" >  T  T  T </v>
  </varray>
  <nose>
   <v>      -3.00000000       0.00000000       0.00010000       0.00010000 </v>
  </nose>
 </structure>
 <calculation>
  <scstep>
   <time name="dav">    6.20    6.20</time>
   <time name="total">    6.31    6.31</time>
   <energy>
    <i name="alphaZ">    358.28533891 </i>
    <i name="ewald">  71156.15325188 </i>
    <i name="hartreedc"> -83911.25843578 </i>
    <i name="XCdc">     87.97201904 </i>
    <i name="pawpsdc">  11602.90403888 </i>
    <i name="pawaedc"> -11137.02028253 </i>
    <i name="eentropy">      0.00920173 </i>
    <i name="bandstr">    619.91029732 </i>
    <i name="atom">  12232.07567246 </i>
    <i name="e_fr_energy">   1009.03110191 </i>
    <i name="e_wo_entrp">   1009.02190018 </i>
    <i name="e_0_energy">   1009.02803467 </i>
   </energy>
  </scstep>
  <scstep>
   <time name="dav">    6.48    6.48</time>
   <time name="total">    6.48    6.48</time>
   <energy>
    <i name="e_fr_energy">    -22.49838168 </i>
    <i name="e_wo_entrp">    -22.50611179 </i>
    <i name="e_0_energy">    -22.50095839 </i>
   </energy>
  </scstep>
  <scstep>
   <time name="dav">    7.02    7.02</time>
   <time name="total">    7.02    7.02</time>
   <energy>
    <i name="e_fr_energy">   -102.28563928 </i>
    <i name="e_wo_entrp">   -102.23220075 </i>
    <i name="e_0_energy">   -102.26782644 </i>
   </energy>
  </scstep>
  <scstep>
   <time name="dav">    8.15    8.15</time>
   <time name="total">    8.15    8.15</time>
   <energy>
    <i name="e_fr_energy">   -105.30925803 </i>
    <i name="e_wo_entrp">   -105.24792671 </i>
    <i name="e_0_energy">   -105.28881426 </i>
   </energy>
  </scstep>
  <scstep>
   <time name="dav">    7.24    7.24</time>
   <time name="total">    7.63    7.63</time>
   <energy>
    <i name="e_fr_energy">   -105.37842624 </i>
    <i name="e_wo_entrp">   -105.31714927 </i>
    <i name="e_0_energy">   -105.35800058 </i>
   </energy>
  </scstep>
  <scstep>
   <time name="dav">    6.95    6.95</time>
   <time name="total">    7.38    7.38</time>
   <energy>
    <i name="e_fr_energy">   -102.88363822 </i>
    <i name="e_wo_entrp">   -102.88691226 </i>
    <i name="e_0_energy">   -102.88472957 </i>
   </energy>
  </scstep>
  <scstep>
   <time name="dav">    8.12    8.12</time>
   <time name="total">    8.67    8.67</time>
   <energy>
    <i name="e_fr_energy">   -145.84266087 </i>
    <i name="e_wo_entrp">   -145.86378898 </i>
    <i name="e_0_energy">   -145.84970357 </i>
   </energy>
  </scstep>
  <scstep>
   <time name="dav">    7.29    7.29</time>
   <time name="total">    7.72    7.72</time>
   <energy>
    <i name="e_fr_energy">   -118.03537670 </i>
    <i name="e_wo_entrp">   -118.05620034 </i>
    <i name="e_0_energy">   -118.04231792 </i>
   </energy>
  </scstep>
  <scstep>
   <time name="dav">    6.74    6.74</time>
   <time name="total">    7.16    7.16</time>
   <energy>
    <i name="e_fr_energy">   -107.57716031 </i>
    <i name="e_wo_entrp">   -107.56033464 </i>
    <i name="e_0_energy">   -107.57155175 </i>
   </energy>
  </scstep>
  <scstep>
   <time name="dav">    6.97    6.97</time>
   <time name="total">    7.52    7.52</time>
   <energy>
    <i name="e_fr_energy">    -99.61259174 </i>
    <i name="e_wo_entrp">    -99.59130874 </i>
    <i name="e_0_energy">    -99.60549741 </i>
   </energy>
  </scstep>
  <scstep>
   <time name="dav">    6.82    6.82</time>
   <time name="total">    7.30    7.30</time>
   <energy>
    <i name="e_fr_energy">    -99.66727144 </i>
    <i name="e_wo_entrp">    -99.63222678 </i>
    <i name="e_0_energy">    -99.65558989 </i>
   </energy>
  </scstep>
  <scstep>
   <time name="dav">    6.63    6.63</time>
   <time name="total">    7.05    7.05</time>
   <energy>
    <i name="e_fr_energy">    -98.91622360 </i>
    <i name="e_wo_entrp">    -98.88893205 </i>
    <i name="e_0_energy">    -98.90712642 </i>
   </energy>
  </scstep>
  <scstep>
   <time name="dav">    6.69    6.69</time>
   <time name="total">    7.12    7.12</time>
   <energy>
    <i name="e_fr_energy">    -98.82827089 </i>
    <i name="e_wo_entrp">    -98.80481454 </i>
    <i name="e_0_energy">    -98.82045210 </i>
   </energy>
  </scstep>
  <scstep>
   <time name="dav">    6.98    6.98</time>
   <time name="total">    7.42    7.43</time>
   <energy>
    <i name="e_fr_energy">    -98.79815920 </i>
    <i name="e_wo_entrp">    -98.77511833 </i>
    <i name="e_0_energy">    -98.79047891 </i>
   </energy>
  </scstep>
  <scstep>
   <time name="dav">    6.91    6.91</time>
   <time name="total">    7.36    7.36</time>
   <energy>
    <i name="e_fr_energy">    -98.85390229 </i>
    <i name="e_wo_entrp">    -98.80449056 </i>
    <i name="e_0_energy">    -98.83743172 </i>
   </energy>
  </scstep>
  <scstep>
   <time name="dav">    6.75    6.75</time>
   <time name="total">    7.24    7.24</time>
   <energy>
    <i name="e_fr_energy">    -98.78505322 </i>
    <i name="e_wo_entrp">    -98.74416733 </i>
    <i name="e_0_energy">    -98.77142459 </i>
   </energy>
  </scstep>
  <scstep>
   <time name="dav">    6.44    6.44</time>
   <time name="total">    6.83    6.84</time>
   <energy>
    <i name="e_fr_energy">    -98.74555353 </i>
    <i name="e_wo_entrp">    -98.70993775 </i>
    <i name="e_0_energy">    -98.73368160 </i>
   </energy>
  </scstep>
  <scstep>
   <time name="dav">    6.69    6.69</time>
   <time name="total">    7.10    7.10</time>
   <energy>
    <i name="e_fr_energy">    -98.74149153 </i>
    <i name="e_wo_entrp">    -98.70929452 </i>
    <i name="e_0_energy">    -98.73075919 </i>
   </energy>
  </scstep>
  <scstep>
   <time name="dav">    6.44    6.44</time>
   <time name="total">    6.91    6.91</time>
   <energy>
    <i name="e_fr_energy">    -98.74060454 </i>
    <i name="e_wo_entrp">    -98.70760503 </i>
    <i name="e_0_energy">    -98.72960470 </i>
   </energy>
  </scstep>
  <scstep>
   <time name="dav">    7.18    7.18</time>
   <time name="total">    7.55    7.55</time>
   <energy>
    <i name="e_fr_energy">    -98.73900764 </i>
    <i name="e_wo_entrp">    -98.70531808 </i>
    <i name="e_0_energy">    -98.72777778 </i>
   </energy>
  </scstep>
  <scstep>
   <time name="dav">    6.13    6.12</time>
   <time name="total">    6.48    6.48</time>
   <energy>
    <i name="e_fr_energy">    -98.73882481 </i>
    <i name="e_wo_entrp">    -98.70582475 </i>
    <i name="e_0_energy">    -98.72782479 </i>
   </energy>
  </scstep>
  <scstep>
   <time name="dav">    4.49    4.49</time>
   <time name="total">    4.56    4.57</time>
   <energy>
    <i name="alphaZ">    358.28533891 </i>
    <i name="ewald">  71156.15325188 </i>
    <i name="hartreedc"> -83781.39765113 </i>
    <i name="XCdc">     84.28718748 </i>
    <i name="pawpsdc">  15032.78970621 </i>
    <i name="pawaedc"> -14608.64819940 </i>
    <i name="eentropy">     -0.03289136 </i>
    <i name="bandstr">   -572.25121235 </i>
    <i name="atom">  12232.07567246 </i>
    <i name="e_fr_energy">    -98.73879730 </i>
    <i name="e_wo_entrp">    -98.70590595 </i>
    <i name="e_0_energy">    -98.72783352 </i>
   </energy>
  </scstep>
  <structure>
   <crystal>
    <varray name="basis" >
     <v>       5.64384424       0.00000000       0.00000000 </v>
     <v>       2.82192212       4.88771248       0.00000000 </v>
     <v>       0.00000000       0.00000000      26.91226928 </v>
    </varray>
    <i name="volume">    742.38807929 </i>
    <varray name="rec_basis" >
     <v>       0.17718420      -0.10229734       0.00000000 </v>
     <v>       0.00000000       0.20459469       0.00000000 </v>
     <v>       0.00000000       0.00000000       0.03715777 </v>
    </varray>
   </crystal>
   <varray name="positions" >
    <v>       0.00000000       0.00000000       0.37157773 </v>
    <v>       0.50000000       0.00000000       0.37157773 </v>
    <v>       0.00000000       0.50000000       0.37157773 </v>
    <v>       0.50000000       0.50000000       0.37157773 </v>
    <v>       0.16666667       0.16666667       0.45719258 </v>
    <v>       0.66666667       0.16666667       0.45719258 </v>
    <v>       0.16666667       0.66666667       0.45719258 </v>
    <v>       0.66666667       0.66666667       0.45719258 </v>
    <v>       0.83591546       0.32816997       0.54264944 </v>
    <v>       0.33333290       0.33333339       0.54133566 </v>
    <v>       0.83591508       0.83591509       0.54264960 </v>
    <v>       0.32816966       0.83591564       0.54264937 </v>
    <v>       0.00000012       0.99999965       0.63611904 </v>
    <v>       0.50032901       0.99934173       0.62616445 </v>
    <v>       0.99934223       0.50032857       0.62616475 </v>
    <v>       0.50032879       0.50032845       0.62616366 </v>
    <v>       0.99999984       0.99999946       0.70481769 </v>
    <v>       0.99999958       0.99999954       0.74805389 </v>
   </varray>
  </structure>
  <varray name="forces" >
   <v>      -0.00000414      -0.00000567      -0.12532498 </v>
   <v>       0.00000671       0.07551054      -0.18271886 </v>
   <v>       0.06540155      -0.03774672      -0.18266147 </v>
   <v>      -0.06539758      -0.03774463      -0.18269387 </v>
   <v>      -0.01700534      -0.00981282       0.17280172 </v>
   <v>       0.01700599      -0.00982379       0.17285437 </v>
   <v>      -0.00001042       0.01963822       0.17283402 </v>
   <v>       0.00000368      -0.00000039       0.09729730 </v>
   <v>       0.00001151       0.00235367      -0.00451872 </v>
   <v>      -0.00000443       0.00000915      -0.00763706 </v>
   <v>      -0.00201505      -0.00119501      -0.00453459 </v>
   <v>       0.00201675      -0.00118125      -0.00457093 </v>
   <v>      -0.00001513      -0.00000965       0.02662341 </v>
   <v>       0.00001029       0.00024801       0.02107919 </v>
   <v>       0.00019645      -0.00011255       0.02094052 </v>
   <v>      -0.00021480      -0.00013088       0.02113004 </v>
   <v>       0.00001838       0.00000909      -0.00704963 </v>
   <v>      -0.00000444      -0.00000531      -0.00385045 </v>
  </varray>
  <energy>
   <i name="e_fr_energy">    -98.73879730 </i>
   <i name="e_wo_entrp">    -98.72783352 </i>
   <i name="e_0_energy">     -0.03289136 </i>
  </energy>
  <time name="totalsc">  158.85  158.88</time>
  <eigenvalues>
   <array>
    <dimension dim="1">band</dimension>
    <dimension dim="2">kpoint</dimension>
    <dimension dim="3">spin</dimension>
    <field>eigene</field>
    <field>occ</field>
    <set>
     <set comment="spin 1">
      <set comment="kpoint 1">
       <r>  -23.7719    1.0000 </r>
       <r>  -10.1359    1.0000 </r>
       <r>   -8.8882    1.0000 </r>
       <r>   -7.7081    1.0000 </r>
       <r>   -7.3157    1.0000 </r>
       <r>   -6.6061    1.0000 </r>
       <r>   -6.6060    1.0000 </r>
       <r>   -6.5904    1.0000 </r>
       <r>   -6.4418    1.0000 </r>
       <r>   -6.1943    1.0000 </r>
       <r>   -6.1943    1.0000 </r>
       <r>   -6.1449    1.0000 </r>
       <r>   -6.0556    1.0000 </r>
       <r>   -6.0006    1.0000 </r>
       <r>   -6.0006    1.0000 </r>
       <r>   -5.5896    1.0000 </r>
       <r>   -5.5896    1.0000 </r>
       <r>   -5.5279    1.0000 </r>
       <r>   -5.4230    1.0000 </r>
       <r>   -5.4230    1.0000 </r>
       <r>   -5.3949    1.0000 </r>
       <r>   -5.3088    1.0000 </r>
       <r>   -5.3088    1.0000 </r>
       <r>   -5.2933    1.0000 </r>
       <r>   -4.5748    1.0000 </r>
       <r>   -4.5748    1.0000 </r>
       <r>   -4.4800    1.0000 </r>
       <r>   -3.7624    1.0000 </r>
       <r>   -3.7624    1.0000 </r>
       <r>   -3.5092    1.0000 </r>
       <r>   -3.4147    1.0000 </r>
       <r>   -3.4147    1.0000 </r>
       <r>   -3.3799    1.0000 </r>
       <r>   -3.3415    1.0000 </r>
       <r>   -3.2222    1.0000 </r>
       <r>   -3.2222    1.0000 </r>
       <r>   -3.1244    1.0000 </r>
       <r>   -3.1244    1.0000 </r>
       <r>   -3.1244    1.0000 </r>
       <r>   -3.0007    1.0000 </r>
       <r>   -2.9977    1.0000 </r>
       <r>   -2.9977    1.0000 </r>
       <r>   -2.8493    1.0000 </r>
       <r>   -2.8493    1.0000 </r>
       <r>   -2.6843    1.0000 </r>
       <r>   -2.6843    1.0000 </r>
       <r>   -2.4083    1.0000 </r>
       <r>   -2.3989    1.0000 </r>
       <r>   -2.3988    1.0000 </r>
       <r>   -2.1921    1.0000 </r>
       <r>   -2.1921    1.0000 </r>
       <r>   -2.0844    1.0000 </r>
       <r>   -1.9639    1.0000 </r>
       <r>   -1.8569    1.0000 </r>
       <r>   -1.8568    1.0000 </r>
       <r>   -1.6205    1.0000 </r>
       <r>   -1.3975    1.0000 </r>
       <r>   -1.3975    1.0000 </r>
       <r>   -1.1993    1.0000 </r>
       <r>   -1.1993    1.0000 </r>
       <r>   -0.8969    1.0000 </r>
       <r>   -0.8969    1.0000 </r>
       <r>   -0.7085    1.0000 </r>
       <r>   -0.7039    1.0000 </r>
       <r>   -0.5868    1.0000 </r>
       <r>   -0.5868    1.0000 </r>
       <r>   -0.4258    1.0001 </r>
       <r>   -0.4258    1.0001 </r>
       <r>   -0.1421    1.0202 </r>
       <r>   -0.1420    1.0202 </r>
       <r>   -0.1420    1.0202 </r>
       <r>   -0.0011    1.0202 </r>
       <r>   -0.0011    1.0201 </r>
       <r>    0.0737    0.9127 </r>
       <r>    0.1271    0.7537 </r>
       <r>    0.1271    0.7536 </r>
       <r>    0.2328    0.3252 </r>
       <r>    0.2328    0.3251 </r>
       <r>    0.2343    0.3193 </r>
       <r>    0.3304    0.0403 </r>
       <r>    0.3304    0.0402 </r>
       <r>    0.3951   -0.0274 </r>
       <r>    0.4536   -0.0343 </r>
       <r>    0.4536   -0.0343 </r>
       <r>    0.4719   -0.0315 </r>
       <r>    0.6347   -0.0037 </r>
       <r>    0.6559   -0.0024 </r>
       <r>    0.6559   -0.0024 </r>
       <r>    0.6737   -0.0017 </r>
       <r>    0.9776   -0.0000 </r>
       <r>    0.9776   -0.0000 </r>
       <r>    0.9980   -0.0000 </r>
       <r>    2.0855   -0.0000 </r>
       <r>    2.0855   -0.0000 </r>
       <r>    2.3188   -0.0000 </r>
       <r>    2.5950   -0.0000 </r>
       <r>    2.8363   -0.0000 </r>
       <r>    2.8363   -0.0000 </r>
       <r>    3.0206   -0.0000 </r>
       <r>    3.0206   -0.0000 </r>
       <r>    3.0570   -0.0000 </r>
       <r>    3.2490   -0.0000 </r>
       <r>    4.2361   -0.0000 </r>
       <r>    4.2362   -0.0000 </r>
      </set>
      <set comment="kpoint 2">
       <r>  -23.7717    1.0000 </r>
       <r>  -10.1172    1.0000 </r>
       <r>   -8.5717    1.0000 </r>
       <r>   -7.5255    1.0000 </r>
       <r>   -7.1771    1.0000 </r>
       <r>   -6.6002    1.0000 </r>
       <r>   -6.5953    1.0000 </r>
       <r>   -6.2797    1.0000 </r>
       <r>   -6.2073    1.0000 </r>
       <r>   -6.1334    1.0000 </r>
       <r>   -5.9774    1.0000 </r>
       <r>   -5.9559    1.0000 </r>
       <r>   -5.9168    1.0000 </r>
       <r>   -5.7924    1.0000 </r>
       <r>   -5.7679    1.0000 </r>
       <r>   -5.4621    1.0000 </r>
       <r>   -5.4272    1.0000 </r>
       <r>   -5.4037    1.0000 </r>
       <r>   -5.3451    1.0000 </r>
       <r>   -5.1946    1.0000 </r>
       <r>   -5.1693    1.0000 </r>
       <r>   -5.1371    1.0000 </r>
       <r>   -5.0186    1.0000 </r>
       <r>   -5.0149    1.0000 </r>
       <r>   -4.4833    1.0000 </r>
       <r>   -4.4777    1.0000 </r>
       <r>   -4.3857    1.0000 </r>
       <r>   -3.8275    1.0000 </r>
       <r>   -3.7591    1.0000 </r>
       <r>   -3.6283    1.0000 </r>
       <r>   -3.5778    1.0000 </r>
       <r>   -3.5004    1.0000 </r>
       <r>   -3.4070    1.0000 </r>
       <r>   -3.3636    1.0000 </r>
       <r>   -3.3206    1.0000 </r>
       <r>   -3.2409    1.0000 </r>
       <r>   -3.0996    1.0000 </r>
       <r>   -3.0078    1.0000 </r>
       <r>   -2.9928    1.0000 </r>
       <r>   -2.9866    1.0000 </r>
       <r>   -2.9531    1.0000 </r>
       <r>   -2.9333    1.0000 </r>
       <r>   -2.9051    1.0000 </r>
       <r>   -2.7651    1.0000 </r>
       <r>   -2.7069    1.0000 </r>
       <r>   -2.7014    1.0000 </r>
       <r>   -2.6421    1.0000 </r>
       <r>   -2.5492    1.0000 </r>
       <r>   -2.5429    1.0000 </r>
       <r>   -2.4840    1.0000 </r>
       <r>   -2.4389    1.0000 </r>
       <r>   -2.3407    1.0000 </r>
       <r>   -2.1038    1.0000 </r>
       <r>   -2.0809    1.0000 </r>
       <r>   -1.9374    1.0000 </r>
       <r>   -1.7776    1.0000 </r>
       <r>   -1.5431    1.0000 </r>
       <r>   -1.5331    1.0000 </r>
       <r>   -1.3191    1.0000 </r>
       <r>   -1.3173    1.0000 </r>
       <r>   -1.2284    1.0000 </r>
       <r>   -1.1666    1.0000 </r>
       <r>   -1.0501    1.0000 </r>
       <r>   -0.9874    1.0000 </r>
       <r>   -0.9668    1.0000 </r>
       <r>   -0.9260    1.0000 </r>
       <r>   -0.8833    1.0000 </r>
       <r>   -0.7868    1.0000 </r>
       <r>   -0.7826    1.0000 </r>
       <r>   -0.5883    1.0000 </r>
       <r>   -0.4718    1.0000 </r>
       <r>   -0.3903    1.0002 </r>
       <r>   -0.2791    1.0022 </r>
       <r>   -0.2563    1.0035 </r>
       <r>   -0.1995    1.0094 </r>
       <r>   -0.1701    1.0143 </r>
       <r>   -0.1525    1.0179 </r>
       <r>   -0.1109    1.0273 </r>
       <r>   -0.1050    1.0287 </r>
       <r>   -0.0294    1.0326 </r>
       <r>    0.1180    0.7855 </r>
       <r>    0.1227    0.7693 </r>
       <r>    0.1305    0.7414 </r>
       <r>    0.2093    0.4208 </r>
       <r>    0.2162    0.3919 </r>
       <r>    0.2196    0.3781 </r>
       <r>    0.3685   -0.0097 </r>
       <r>    0.4272   -0.0352 </r>
       <r>    0.4518   -0.0345 </r>
       <r>    0.4609   -0.0334 </r>
       <r>    1.2983   -0.0000 </r>
       <r>    1.6449   -0.0000 </r>
       <r>    1.6993   -0.0000 </r>
       <r>    1.7855   -0.0000 </r>
       <r>    2.1478   -0.0000 </r>
       <r>    2.2751   -0.0000 </r>
       <r>    2.8016   -0.0000 </r>
       <r>    2.8141   -0.0000 </r>
       <r>    3.3225   -0.0000 </r>
       <r>    3.6654   -0.0000 </r>
       <r>    4.0268   -0.0000 </r>
       <r>    4.4229   -0.0000 </r>
       <r>    4.7890   -0.0000 </r>
       <r>    4.8855   -0.0000 </r>
      </set>
      <set comment="kpoint 3">
       <r>  -23.7711    1.0000 </r>
       <r>  -10.0926    1.0000 </r>
       <r>   -7.7367    1.0000 </r>
       <r>   -7.4009    1.0000 </r>
       <r>   -6.6697    1.0000 </r>
       <r>   -6.5849    1.0000 </r>
       <r>   -6.5846    1.0000 </r>
       <r>   -6.4606    1.0000 </r>
       <r>   -5.8965    1.0000 </r>
       <r>   -5.5724    1.0000 </r>
       <r>   -5.4686    1.0000 </r>
       <r>   -5.4590    1.0000 </r>
       <r>   -5.3985    1.0000 </r>
       <r>   -5.3664    1.0000 </r>
       <r>   -5.3327    1.0000 </r>
       <r>   -5.2788    1.0000 </r>
       <r>   -5.0054    1.0000 </r>
       <r>   -4.9437    1.0000 </r>
       <r>   -4.9173    1.0000 </r>
       <r>   -4.8353    1.0000 </r>
       <r>   -4.7363    1.0000 </r>
       <r>   -4.6744    1.0000 </r>
       <r>   -4.4063    1.0000 </r>
       <r>   -4.3500    1.0000 </r>
       <r>   -4.2242    1.0000 </r>
       <r>   -4.2083    1.0000 </r>
       <r>   -4.2013    1.0000 </r>
       <r>   -4.0937    1.0000 </r>
       <r>   -3.9893    1.0000 </r>
       <r>   -3.9412    1.0000 </r>
       <r>   -3.8499    1.0000 </r>
       <r>   -3.7623    1.0000 </r>
       <r>   -3.6147    1.0000 </r>
       <r>   -3.5607    1.0000 </r>
       <r>   -3.5094    1.0000 </r>
       <r>   -3.4260    1.0000 </r>
       <r>   -3.3232    1.0000 </r>
       <r>   -3.3213    1.0000 </r>
       <r>   -3.2426    1.0000 </r>
       <r>   -3.1649    1.0000 </r>
       <r>   -3.1238    1.0000 </r>
       <r>   -3.0055    1.0000 </r>
       <r>   -2.9752    1.0000 </r>
       <r>   -2.8661    1.0000 </r>
       <r>   -2.7498    1.0000 </r>
       <r>   -2.7181    1.0000 </r>
       <r>   -2.6686    1.0000 </r>
       <r>   -2.6626    1.0000 </r>
       <r>   -2.6321    1.0000 </r>
       <r>   -2.5161    1.0000 </r>
       <r>   -2.5058    1.0000 </r>
       <r>   -2.4305    1.0000 </r>
       <r>   -2.3578    1.0000 </r>
       <r>   -2.3309    1.0000 </r>
       <r>   -2.2775    1.0000 </r>
       <r>   -2.2341    1.0000 </r>
       <r>   -2.1591    1.0000 </r>
       <r>   -2.1046    1.0000 </r>
       <r>   -2.0862    1.0000 </r>
       <r>   -1.9695    1.0000 </r>
       <r>   -1.8849    1.0000 </r>
       <r>   -1.8752    1.0000 </r>
       <r>   -1.7687    1.0000 </r>
       <r>   -1.6499    1.0000 </r>
       <r>   -1.5458    1.0000 </r>
       <r>   -1.4083    1.0000 </r>
       <r>   -1.3316    1.0000 </r>
       <r>   -1.2772    1.0000 </r>
       <r>   -1.1727    1.0000 </r>
       <r>   -1.0987    1.0000 </r>
       <r>   -1.0764    1.0000 </r>
       <r>   -1.0186    1.0000 </r>
       <r>   -0.9800    1.0000 </r>
       <r>   -0.9587    1.0000 </r>
       <r>   -0.8514    1.0000 </r>
       <r>   -0.8102    1.0000 </r>
       <r>   -0.7350    1.0000 </r>
       <r>   -0.6269    1.0000 </r>
       <r>   -0.4703    1.0000 </r>
       <r>   -0.4647    1.0000 </r>
       <r>   -0.2917    1.0017 </r>
       <r>   -0.1071    1.0282 </r>
       <r>   -0.0963    1.0305 </r>
       <r>    0.1188    0.7826 </r>
       <r>    0.1298    0.7440 </r>
       <r>    0.2159    0.3931 </r>
       <r>    0.2616    0.2190 </r>
       <r>    0.4138   -0.0334 </r>
       <r>    0.4631   -0.0330 </r>
       <r>    0.5091   -0.0234 </r>
       <r>    1.1519   -0.0000 </r>
       <r>    1.9578   -0.0000 </r>
       <r>    1.9777   -0.0000 </r>
       <r>    2.2412   -0.0000 </r>
       <r>    2.2693   -0.0000 </r>
       <r>    2.5522   -0.0000 </r>
       <r>    3.1474   -0.0000 </r>
       <r>    3.1577   -0.0000 </r>
       <r>    3.4256   -0.0000 </r>
       <r>    3.7976   -0.0000 </r>
       <r>    4.2008   -0.0000 </r>
       <r>    4.5300   -0.0000 </r>
       <r>    5.5237   -0.0000 </r>
       <r>    5.5480   -0.0000 </r>
      </set>
      <set comment="kpoint 4">
       <r>  -23.7717    1.0000 </r>
       <r>  -10.1172    1.0000 </r>
       <r>   -8.5717    1.0000 </r>
       <r>   -7.5255    1.0000 </r>
       <r>   -7.1771    1.0000 </r>
       <r>   -6.6002    1.0000 </r>
       <r>   -6.5953    1.0000 </r>
       <r>   -6.2797    1.0000 </r>
       <r>   -6.2073    1.0000 </r>
       <r>   -6.1334    1.0000 </r>
       <r>   -5.9774    1.0000 </r>
       <r>   -5.9559    1.0000 </r>
       <r>   -5.9168    1.0000 </r>
       <r>   -5.7924    1.0000 </r>
       <r>   -5.7679    1.0000 </r>
       <r>   -5.4622    1.0000 </r>
       <r>   -5.4272    1.0000 </r>
       <r>   -5.4037    1.0000 </r>
       <r>   -5.3451    1.0000 </r>
       <r>   -5.1946    1.0000 </r>
       <r>   -5.1693    1.0000 </r>
       <r>   -5.1371    1.0000 </r>
       <r>   -5.0186    1.0000 </r>
       <r>   -5.0149    1.0000 </r>
       <r>   -4.4833    1.0000 </r>
       <r>   -4.4777    1.0000 </r>
       <r>   -4.3857    1.0000 </r>
       <r>   -3.8275    1.0000 </r>
       <r>   -3.7591    1.0000 </r>
       <r>   -3.6283    1.0000 </r>
       <r>   -3.5778    1.0000 </r>
       <r>   -3.5004    1.0000 </r>
       <r>   -3.4070    1.0000 </r>
       <r>   -3.3636    1.0000 </r>
       <r>   -3.3206    1.0000 </r>
       <r>   -3.2409    1.0000 </r>
       <r>   -3.0996    1.0000 </r>
       <r>   -3.0078    1.0000 </r>
       <r>   -2.9928    1.0000 </r>
       <r>   -2.9866    1.0000 </r>
       <r>   -2.9531    1.0000 </r>
       <r>   -2.9333    1.0000 </r>
       <r>   -2.9051    1.0000 </r>
       <r>   -2.7650    1.0000 </r>
       <r>   -2.7069    1.0000 </r>
       <r>   -2.7014    1.0000 </r>
       <r>   -2.6421    1.0000 </r>
       <r>   -2.5492    1.0000 </r>
       <r>   -2.5429    1.0000 </r>
       <r>   -2.4840    1.0000 </r>
       <r>   -2.4389    1.0000 </r>
       <r>   -2.3407    1.0000 </r>
       <r>   -2.1038    1.0000 </r>
       <r>   -2.0809    1.0000 </r>
       <r>   -1.9374    1.0000 </r>
       <r>   -1.7776    1.0000 </r>
       <r>   -1.5431    1.0000 </r>
       <r>   -1.5332    1.0000 </r>
       <r>   -1.3191    1.0000 </r>
       <r>   -1.3173    1.0000 </r>
       <r>   -1.2284    1.0000 </r>
       <r>   -1.1666    1.0000 </r>
       <r>   -1.0501    1.0000 </r>
       <r>   -0.9874    1.0000 </r>
       <r>   -0.9669    1.0000 </r>
       <r>   -0.9260    1.0000 </r>
       <r>   -0.8833    1.0000 </r>
       <r>   -0.7868    1.0000 </r>
       <r>   -0.7826    1.0000 </r>
       <r>   -0.5883    1.0000 </r>
       <r>   -0.4718    1.0000 </r>
       <r>   -0.3903    1.0002 </r>
       <r>   -0.2791    1.0022 </r>
       <r>   -0.2563    1.0035 </r>
       <r>   -0.1995    1.0094 </r>
       <r>   -0.1701    1.0143 </r>
       <r>   -0.1525    1.0179 </r>
       <r>   -0.1109    1.0273 </r>
       <r>   -0.1050    1.0287 </r>
       <r>   -0.0294    1.0326 </r>
       <r>    0.1180    0.7855 </r>
       <r>    0.1227    0.7694 </r>
       <r>    0.1305    0.7414 </r>
       <r>    0.2093    0.4208 </r>
       <r>    0.2162    0.3919 </r>
       <r>    0.2196    0.3781 </r>
       <r>    0.3685   -0.0097 </r>
       <r>    0.4272   -0.0352 </r>
       <r>    0.4518   -0.0345 </r>
       <r>    0.4609   -0.0334 </r>
       <r>    1.2983   -0.0000 </r>
       <r>    1.6449   -0.0000 </r>
       <r>    1.6993   -0.0000 </r>
       <r>    1.7855   -0.0000 </r>
       <r>    2.1478   -0.0000 </r>
       <r>    2.2751   -0.0000 </r>
       <r>    2.8016   -0.0000 </r>
       <r>    2.8141   -0.0000 </r>
       <r>    3.3225   -0.0000 </r>
       <r>    3.6654   -0.0000 </r>
       <r>    4.0269   -0.0000 </r>
       <r>    4.4229   -0.0000 </r>
       <r>    4.7890   -0.0000 </r>
       <r>    4.8856   -0.0000 </r>
      </set>
      <set comment="kpoint 5">
       <r>  -23.7717    1.0000 </r>
       <r>  -10.1172    1.0000 </r>
       <r>   -8.5717    1.0000 </r>
       <r>   -7.5255    1.0000 </r>
       <r>   -7.1771    1.0000 </r>
       <r>   -6.6004    1.0000 </r>
       <r>   -6.5952    1.0000 </r>
       <r>   -6.2797    1.0000 </r>
       <r>   -6.2073    1.0000 </r>
       <r>   -6.1334    1.0000 </r>
       <r>   -5.9774    1.0000 </r>
       <r>   -5.9559    1.0000 </r>
       <r>   -5.9168    1.0000 </r>
       <r>   -5.7924    1.0000 </r>
       <r>   -5.7679    1.0000 </r>
       <r>   -5.4621    1.0000 </r>
       <r>   -5.4272    1.0000 </r>
       <r>   -5.4037    1.0000 </r>
       <r>   -5.3451    1.0000 </r>
       <r>   -5.1946    1.0000 </r>
       <r>   -5.1693    1.0000 </r>
       <r>   -5.1371    1.0000 </r>
       <r>   -5.0186    1.0000 </r>
       <r>   -5.0149    1.0000 </r>
       <r>   -4.4833    1.0000 </r>
       <r>   -4.4777    1.0000 </r>
       <r>   -4.3857    1.0000 </r>
       <r>   -3.8275    1.0000 </r>
       <r>   -3.7591    1.0000 </r>
       <r>   -3.6283    1.0000 </r>
       <r>   -3.5778    1.0000 </r>
       <r>   -3.5004    1.0000 </r>
       <r>   -3.4070    1.0000 </r>
       <r>   -3.3636    1.0000 </r>
       <r>   -3.3206    1.0000 </r>
       <r>   -3.2409    1.0000 </r>
       <r>   -3.0996    1.0000 </r>
       <r>   -3.0078    1.0000 </r>
       <r>   -2.9928    1.0000 </r>
       <r>   -2.9866    1.0000 </r>
       <r>   -2.9531    1.0000 </r>
       <r>   -2.9333    1.0000 </r>
       <r>   -2.9051    1.0000 </r>
       <r>   -2.7650    1.0000 </r>
       <r>   -2.7069    1.0000 </r>
       <r>   -2.7014    1.0000 </r>
       <r>   -2.6421    1.0000 </r>
       <r>   -2.5492    1.0000 </r>
       <r>   -2.5429    1.0000 </r>
       <r>   -2.4840    1.0000 </r>
       <r>   -2.4389    1.0000 </r>
       <r>   -2.3407    1.0000 </r>
       <r>   -2.1038    1.0000 </r>
       <r>   -2.0810    1.0000 </r>
       <r>   -1.9373    1.0000 </r>
       <r>   -1.7776    1.0000 </r>
       <r>   -1.5431    1.0000 </r>
       <r>   -1.5331    1.0000 </r>
       <r>   -1.3191    1.0000 </r>
       <r>   -1.3173    1.0000 </r>
       <r>   -1.2284    1.0000 </r>
       <r>   -1.1667    1.0000 </r>
       <r>   -1.0501    1.0000 </r>
       <r>   -0.9874    1.0000 </r>
       <r>   -0.9668    1.0000 </r>
       <r>   -0.9260    1.0000 </r>
       <r>   -0.8833    1.0000 </r>
       <r>   -0.7868    1.0000 </r>
       <r>   -0.7826    1.0000 </r>
       <r>   -0.5883    1.0000 </r>
       <r>   -0.4718    1.0000 </r>
       <r>   -0.3903    1.0002 </r>
       <r>   -0.2791    1.0022 </r>
       <r>   -0.2563    1.0035 </r>
       <r>   -0.1995    1.0094 </r>
       <r>   -0.1701    1.0143 </r>
       <r>   -0.1525    1.0179 </r>
       <r>   -0.1109    1.0273 </r>
       <r>   -0.1050    1.0286 </r>
       <r>   -0.0294    1.0326 </r>
       <r>    0.1180    0.7855 </r>
       <r>    0.1227    0.7693 </r>
       <r>    0.1305    0.7414 </r>
       <r>    0.2093    0.4207 </r>
       <r>    0.2162    0.3919 </r>
       <r>    0.2196    0.3781 </r>
       <r>    0.3685   -0.0097 </r>
       <r>    0.4272   -0.0352 </r>
       <r>    0.4518   -0.0345 </r>
       <r>    0.4609   -0.0334 </r>
       <r>    1.2983   -0.0000 </r>
       <r>    1.6449   -0.0000 </r>
       <r>    1.6993   -0.0000 </r>
       <r>    1.7855   -0.0000 </r>
       <r>    2.1478   -0.0000 </r>
       <r>    2.2751   -0.0000 </r>
       <r>    2.8016   -0.0000 </r>
       <r>    2.8141   -0.0000 </r>
       <r>    3.3224   -0.0000 </r>
       <r>    3.6653   -0.0000 </r>
       <r>    4.0269   -0.0000 </r>
       <r>    4.4229   -0.0000 </r>
       <r>    4.7891   -0.0000 </r>
       <r>    4.8855   -0.0000 </r>
      </set>
      <set comment="kpoint 6">
       <r>  -23.7710    1.0000 </r>
       <r>  -10.0970    1.0000 </r>
       <r>   -7.9806    1.0000 </r>
       <r>   -7.4266    1.0000 </r>
       <r>   -6.6962    1.0000 </r>
       <r>   -6.5861    1.0000 </r>
       <r>   -6.5842    1.0000 </r>
       <r>   -6.1223    1.0000 </r>
       <r>   -6.1011    1.0000 </r>
       <r>   -5.7294    1.0000 </r>
       <r>   -5.6760    1.0000 </r>
       <r>   -5.6034    1.0000 </r>
       <r>   -5.5847    1.0000 </r>
       <r>   -5.4170    1.0000 </r>
       <r>   -5.3964    1.0000 </r>
       <r>   -5.2376    1.0000 </r>
       <r>   -5.2320    1.0000 </r>
       <r>   -5.0866    1.0000 </r>
       <r>   -5.0289    1.0000 </r>
       <r>   -4.9639    1.0000 </r>
       <r>   -4.7677    1.0000 </r>
       <r>   -4.7620    1.0000 </r>
       <r>   -4.6160    1.0000 </r>
       <r>   -4.5105    1.0000 </r>
       <r>   -4.3256    1.0000 </r>
       <r>   -4.2799    1.0000 </r>
       <r>   -4.2047    1.0000 </r>
       <r>   -4.0776    1.0000 </r>
       <r>   -3.9138    1.0000 </r>
       <r>   -3.8675    1.0000 </r>
       <r>   -3.7583    1.0000 </r>
       <r>   -3.7254    1.0000 </r>
       <r>   -3.6825    1.0000 </r>
       <r>   -3.4713    1.0000 </r>
       <r>   -3.3818    1.0000 </r>
       <r>   -3.3360    1.0000 </r>
       <r>   -3.2618    1.0000 </r>
       <r>   -3.2496    1.0000 </r>
       <r>   -3.1213    1.0000 </r>
       <r>   -3.0807    1.0000 </r>
       <r>   -3.0591    1.0000 </r>
       <r>   -3.0259    1.0000 </r>
       <r>   -2.9849    1.0000 </r>
       <r>   -2.9093    1.0000 </r>
       <r>   -2.8842    1.0000 </r>
       <r>   -2.7846    1.0000 </r>
       <r>   -2.6860    1.0000 </r>
       <r>   -2.6531    1.0000 </r>
       <r>   -2.6379    1.0000 </r>
       <r>   -2.4826    1.0000 </r>
       <r>   -2.4738    1.0000 </r>
       <r>   -2.3375    1.0000 </r>
       <r>   -2.2501    1.0000 </r>
       <r>   -2.1604    1.0000 </r>
       <r>   -2.0969    1.0000 </r>
       <r>   -2.0633    1.0000 </r>
       <r>   -2.0467    1.0000 </r>
       <r>   -1.9950    1.0000 </r>
       <r>   -1.9583    1.0000 </r>
       <r>   -1.8411    1.0000 </r>
       <r>   -1.7807    1.0000 </r>
       <r>   -1.7368    1.0000 </r>
       <r>   -1.7263    1.0000 </r>
       <r>   -1.6547    1.0000 </r>
       <r>   -1.5745    1.0000 </r>
       <r>   -1.3238    1.0000 </r>
       <r>   -1.1899    1.0000 </r>
       <r>   -1.1333    1.0000 </r>
       <r>   -1.0930    1.0000 </r>
       <r>   -1.0097    1.0000 </r>
       <r>   -0.9474    1.0000 </r>
       <r>   -0.8234    1.0000 </r>
       <r>   -0.7348    1.0000 </r>
       <r>   -0.7119    1.0000 </r>
       <r>   -0.6854    1.0000 </r>
       <r>   -0.4985    1.0000 </r>
       <r>   -0.3158    1.0010 </r>
       <r>   -0.2379    1.0049 </r>
       <r>   -0.1659    1.0151 </r>
       <r>   -0.1437    1.0198 </r>
       <r>   -0.1148    1.0265 </r>
       <r>   -0.0771    1.0338 </r>
       <r>   -0.0115    1.0261 </r>
       <r>    0.0375    0.9805 </r>
       <r>    0.1745    0.5671 </r>
       <r>    0.2131    0.4047 </r>
       <r>    0.2702    0.1903 </r>
       <r>    0.3430    0.0200 </r>
       <r>    0.3602   -0.0015 </r>
       <r>    0.4933   -0.0270 </r>
       <r>    0.5407   -0.0164 </r>
       <r>    0.7378   -0.0004 </r>
       <r>    1.5444   -0.0000 </r>
       <r>    1.6066   -0.0000 </r>
       <r>    2.4537   -0.0000 </r>
       <r>    2.9517   -0.0000 </r>
       <r>    3.2920   -0.0000 </r>
       <r>    3.6705   -0.0000 </r>
       <r>    3.7833   -0.0000 </r>
       <r>    3.8787   -0.0000 </r>
       <r>    4.1508   -0.0000 </r>
       <r>    4.7071   -0.0000 </r>
       <r>    4.7894   -0.0000 </r>
       <r>    5.1002   -0.0000 </r>
      </set>
      <set comment="kpoint 7">
       <r>  -23.7708    1.0000 </r>
       <r>  -10.0863    1.0000 </r>
       <r>   -7.4828    1.0000 </r>
       <r>   -6.9501    1.0000 </r>
       <r>   -6.8661    1.0000 </r>
       <r>   -6.5814    1.0000 </r>
       <r>   -6.5801    1.0000 </r>
       <r>   -5.9685    1.0000 </r>
       <r>   -5.9525    1.0000 </r>
       <r>   -5.8442    1.0000 </r>
       <r>   -5.3877    1.0000 </r>
       <r>   -5.1541    1.0000 </r>
       <r>   -5.1369    1.0000 </r>
       <r>   -5.0666    1.0000 </r>
       <r>   -5.0004    1.0000 </r>
       <r>   -4.8876    1.0000 </r>
       <r>   -4.8376    1.0000 </r>
       <r>   -4.7997    1.0000 </r>
       <r>   -4.7173    1.0000 </r>
       <r>   -4.5253    1.0000 </r>
       <r>   -4.5051    1.0000 </r>
       <r>   -4.4564    1.0000 </r>
       <r>   -4.4359    1.0000 </r>
       <r>   -4.3853    1.0000 </r>
       <r>   -4.2877    1.0000 </r>
       <r>   -4.1586    1.0000 </r>
       <r>   -4.1144    1.0000 </r>
       <r>   -4.1097    1.0000 </r>
       <r>   -4.0792    1.0000 </r>
       <r>   -4.0156    1.0000 </r>
       <r>   -3.9537    1.0000 </r>
       <r>   -3.9268    1.0000 </r>
       <r>   -3.8931    1.0000 </r>
       <r>   -3.6924    1.0000 </r>
       <r>   -3.6586    1.0000 </r>
       <r>   -3.5650    1.0000 </r>
       <r>   -3.4784    1.0000 </r>
       <r>   -3.4259    1.0000 </r>
       <r>   -3.3746    1.0000 </r>
       <r>   -3.3054    1.0000 </r>
       <r>   -3.2786    1.0000 </r>
       <r>   -3.2571    1.0000 </r>
       <r>   -3.1656    1.0000 </r>
       <r>   -3.1411    1.0000 </r>
       <r>   -3.1078    1.0000 </r>
       <r>   -3.0094    1.0000 </r>
       <r>   -2.9931    1.0000 </r>
       <r>   -2.8421    1.0000 </r>
       <r>   -2.7730    1.0000 </r>
       <r>   -2.7466    1.0000 </r>
       <r>   -2.6204    1.0000 </r>
       <r>   -2.5765    1.0000 </r>
       <r>   -2.4904    1.0000 </r>
       <r>   -2.4516    1.0000 </r>
       <r>   -2.4299    1.0000 </r>
       <r>   -2.3385    1.0000 </r>
       <r>   -2.2392    1.0000 </r>
       <r>   -2.0066    1.0000 </r>
       <r>   -1.9108    1.0000 </r>
       <r>   -1.8567    1.0000 </r>
       <r>   -1.8442    1.0000 </r>
       <r>   -1.7303    1.0000 </r>
       <r>   -1.6910    1.0000 </r>
       <r>   -1.6215    1.0000 </r>
       <r>   -1.5278    1.0000 </r>
       <r>   -1.4591    1.0000 </r>
       <r>   -1.3453    1.0000 </r>
       <r>   -1.2937    1.0000 </r>
       <r>   -1.2266    1.0000 </r>
       <r>   -1.1516    1.0000 </r>
       <r>   -1.0571    1.0000 </r>
       <r>   -0.9769    1.0000 </r>
       <r>   -0.9389    1.0000 </r>
       <r>   -0.8745    1.0000 </r>
       <r>   -0.8139    1.0000 </r>
       <r>   -0.7530    1.0000 </r>
       <r>   -0.6284    1.0000 </r>
       <r>   -0.5370    1.0000 </r>
       <r>   -0.5090    1.0000 </r>
       <r>   -0.4572    1.0000 </r>
       <r>   -0.3681    1.0003 </r>
       <r>   -0.1870    1.0113 </r>
       <r>   -0.1033    1.0290 </r>
       <r>   -0.0838    1.0328 </r>
       <r>   -0.0351    1.0338 </r>
       <r>    0.0099    1.0118 </r>
       <r>    0.1218    0.7725 </r>
       <r>    0.1797    0.5454 </r>
       <r>    0.2813    0.1562 </r>
       <r>    0.5070   -0.0239 </r>
       <r>    0.6237   -0.0045 </r>
       <r>    0.6829   -0.0014 </r>
       <r>    1.2370   -0.0000 </r>
       <r>    1.8682   -0.0000 </r>
       <r>    2.5596   -0.0000 </r>
       <r>    3.0938   -0.0000 </r>
       <r>    3.2993   -0.0000 </r>
       <r>    3.3930   -0.0000 </r>
       <r>    3.8434   -0.0000 </r>
       <r>    4.1235   -0.0000 </r>
       <r>    4.8031   -0.0000 </r>
       <r>    5.1304   -0.0000 </r>
       <r>    5.4160   -0.0000 </r>
       <r>    5.6105   -0.0000 </r>
      </set>
      <set comment="kpoint 8">
       <r>  -23.7710    1.0000 </r>
       <r>  -10.0970    1.0000 </r>
       <r>   -7.9806    1.0000 </r>
       <r>   -7.4266    1.0000 </r>
       <r>   -6.6962    1.0000 </r>
       <r>   -6.5862    1.0000 </r>
       <r>   -6.5840    1.0000 </r>
       <r>   -6.1223    1.0000 </r>
       <r>   -6.1011    1.0000 </r>
       <r>   -5.7294    1.0000 </r>
       <r>   -5.6760    1.0000 </r>
       <r>   -5.6035    1.0000 </r>
       <r>   -5.5847    1.0000 </r>
       <r>   -5.4170    1.0000 </r>
       <r>   -5.3964    1.0000 </r>
       <r>   -5.2376    1.0000 </r>
       <r>   -5.2320    1.0000 </r>
       <r>   -5.0866    1.0000 </r>
       <r>   -5.0289    1.0000 </r>
       <r>   -4.9638    1.0000 </r>
       <r>   -4.7677    1.0000 </r>
       <r>   -4.7620    1.0000 </r>
       <r>   -4.6160    1.0000 </r>
       <r>   -4.5105    1.0000 </r>
       <r>   -4.3256    1.0000 </r>
       <r>   -4.2799    1.0000 </r>
       <r>   -4.2047    1.0000 </r>
       <r>   -4.0775    1.0000 </r>
       <r>   -3.9138    1.0000 </r>
       <r>   -3.8675    1.0000 </r>
       <r>   -3.7583    1.0000 </r>
       <r>   -3.7254    1.0000 </r>
       <r>   -3.6825    1.0000 </r>
       <r>   -3.4713    1.0000 </r>
       <r>   -3.3818    1.0000 </r>
       <r>   -3.3360    1.0000 </r>
       <r>   -3.2618    1.0000 </r>
       <r>   -3.2496    1.0000 </r>
       <r>   -3.1213    1.0000 </r>
       <r>   -3.0807    1.0000 </r>
       <r>   -3.0591    1.0000 </r>
       <r>   -3.0259    1.0000 </r>
       <r>   -2.9849    1.0000 </r>
       <r>   -2.9093    1.0000 </r>
       <r>   -2.8841    1.0000 </r>
       <r>   -2.7846    1.0000 </r>
       <r>   -2.6860    1.0000 </r>
       <r>   -2.6531    1.0000 </r>
       <r>   -2.6379    1.0000 </r>
       <r>   -2.4826    1.0000 </r>
       <r>   -2.4738    1.0000 </r>
       <r>   -2.3375    1.0000 </r>
       <r>   -2.2501    1.0000 </r>
       <r>   -2.1604    1.0000 </r>
       <r>   -2.0969    1.0000 </r>
       <r>   -2.0633    1.0000 </r>
       <r>   -2.0467    1.0000 </r>
       <r>   -1.9950    1.0000 </r>
       <r>   -1.9583    1.0000 </r>
       <r>   -1.8411    1.0000 </r>
       <r>   -1.7807    1.0000 </r>
       <r>   -1.7368    1.0000 </r>
       <r>   -1.7263    1.0000 </r>
       <r>   -1.6547    1.0000 </r>
       <r>   -1.5745    1.0000 </r>
       <r>   -1.3238    1.0000 </r>
       <r>   -1.1899    1.0000 </r>
       <r>   -1.1333    1.0000 </r>
       <r>   -1.0930    1.0000 </r>
       <r>   -1.0097    1.0000 </r>
       <r>   -0.9473    1.0000 </r>
       <r>   -0.8234    1.0000 </r>
       <r>   -0.7348    1.0000 </r>
       <r>   -0.7119    1.0000 </r>
       <r>   -0.6855    1.0000 </r>
       <r>   -0.4985    1.0000 </r>
       <r>   -0.3158    1.0010 </r>
       <r>   -0.2379    1.0049 </r>
       <r>   -0.1659    1.0151 </r>
       <r>   -0.1437    1.0198 </r>
       <r>   -0.1148    1.0265 </r>
       <r>   -0.0771    1.0338 </r>
       <r>   -0.0115    1.0261 </r>
       <r>    0.0375    0.9805 </r>
       <r>    0.1745    0.5671 </r>
       <r>    0.2131    0.4047 </r>
       <r>    0.2702    0.1903 </r>
       <r>    0.3430    0.0200 </r>
       <r>    0.3602   -0.0015 </r>
       <r>    0.4933   -0.0270 </r>
       <r>    0.5407   -0.0164 </r>
       <r>    0.7378   -0.0004 </r>
       <r>    1.5444   -0.0000 </r>
       <r>    1.6066   -0.0000 </r>
       <r>    2.4537   -0.0000 </r>
       <r>    2.9516   -0.0000 </r>
       <r>    3.2921   -0.0000 </r>
       <r>    3.6705   -0.0000 </r>
       <r>    3.7833   -0.0000 </r>
       <r>    3.8786   -0.0000 </r>
       <r>    4.1508   -0.0000 </r>
       <r>    4.7071   -0.0000 </r>
       <r>    4.7894   -0.0000 </r>
       <r>    5.1002   -0.0000 </r>
      </set>
      <set comment="kpoint 9">
       <r>  -23.7711    1.0000 </r>
       <r>  -10.0926    1.0000 </r>
       <r>   -7.7367    1.0000 </r>
       <r>   -7.4009    1.0000 </r>
       <r>   -6.6697    1.0000 </r>
       <r>   -6.5849    1.0000 </r>
       <r>   -6.5846    1.0000 </r>
       <r>   -6.4606    1.0000 </r>
       <r>   -5.8965    1.0000 </r>
       <r>   -5.5724    1.0000 </r>
       <r>   -5.4686    1.0000 </r>
       <r>   -5.4590    1.0000 </r>
       <r>   -5.3986    1.0000 </r>
       <r>   -5.3664    1.0000 </r>
       <r>   -5.3327    1.0000 </r>
       <r>   -5.2788    1.0000 </r>
       <r>   -5.0054    1.0000 </r>
       <r>   -4.9437    1.0000 </r>
       <r>   -4.9173    1.0000 </r>
       <r>   -4.8353    1.0000 </r>
       <r>   -4.7363    1.0000 </r>
       <r>   -4.6744    1.0000 </r>
       <r>   -4.4063    1.0000 </r>
       <r>   -4.3500    1.0000 </r>
       <r>   -4.2242    1.0000 </r>
       <r>   -4.2083    1.0000 </r>
       <r>   -4.2013    1.0000 </r>
       <r>   -4.0937    1.0000 </r>
       <r>   -3.9894    1.0000 </r>
       <r>   -3.9412    1.0000 </r>
       <r>   -3.8499    1.0000 </r>
       <r>   -3.7623    1.0000 </r>
       <r>   -3.6147    1.0000 </r>
       <r>   -3.5607    1.0000 </r>
       <r>   -3.5094    1.0000 </r>
       <r>   -3.4260    1.0000 </r>
       <r>   -3.3232    1.0000 </r>
       <r>   -3.3212    1.0000 </r>
       <r>   -3.2426    1.0000 </r>
       <r>   -3.1649    1.0000 </r>
       <r>   -3.1238    1.0000 </r>
       <r>   -3.0055    1.0000 </r>
       <r>   -2.9752    1.0000 </r>
       <r>   -2.8661    1.0000 </r>
       <r>   -2.7498    1.0000 </r>
       <r>   -2.7180    1.0000 </r>
       <r>   -2.6686    1.0000 </r>
       <r>   -2.6626    1.0000 </r>
       <r>   -2.6321    1.0000 </r>
       <r>   -2.5161    1.0000 </r>
       <r>   -2.5059    1.0000 </r>
       <r>   -2.4305    1.0000 </r>
       <r>   -2.3578    1.0000 </r>
       <r>   -2.3309    1.0000 </r>
       <r>   -2.2775    1.0000 </r>
       <r>   -2.2341    1.0000 </r>
       <r>   -2.1591    1.0000 </r>
       <r>   -2.1046    1.0000 </r>
       <r>   -2.0862    1.0000 </r>
       <r>   -1.9695    1.0000 </r>
       <r>   -1.8849    1.0000 </r>
       <r>   -1.8752    1.0000 </r>
       <r>   -1.7687    1.0000 </r>
       <r>   -1.6499    1.0000 </r>
       <r>   -1.5458    1.0000 </r>
       <r>   -1.4083    1.0000 </r>
       <r>   -1.3316    1.0000 </r>
       <r>   -1.2772    1.0000 </r>
       <r>   -1.1727    1.0000 </r>
       <r>   -1.0987    1.0000 </r>
       <r>   -1.0764    1.0000 </r>
       <r>   -1.0186    1.0000 </r>
       <r>   -0.9800    1.0000 </r>
       <r>   -0.9587    1.0000 </r>
       <r>   -0.8514    1.0000 </r>
       <r>   -0.8102    1.0000 </r>
       <r>   -0.7350    1.0000 </r>
       <r>   -0.6269    1.0000 </r>
       <r>   -0.4703    1.0000 </r>
       <r>   -0.4647    1.0000 </r>
       <r>   -0.2917    1.0017 </r>
       <r>   -0.1070    1.0282 </r>
       <r>   -0.0963    1.0305 </r>
       <r>    0.1188    0.7826 </r>
       <r>    0.1298    0.7440 </r>
       <r>    0.2159    0.3931 </r>
       <r>    0.2616    0.2190 </r>
       <r>    0.4139   -0.0334 </r>
       <r>    0.4631   -0.0330 </r>
       <r>    0.5091   -0.0234 </r>
       <r>    1.1519   -0.0000 </r>
       <r>    1.9578   -0.0000 </r>
       <r>    1.9777   -0.0000 </r>
       <r>    2.2412   -0.0000 </r>
       <r>    2.2693   -0.0000 </r>
       <r>    2.5522   -0.0000 </r>
       <r>    3.1474   -0.0000 </r>
       <r>    3.1577   -0.0000 </r>
       <r>    3.4256   -0.0000 </r>
       <r>    3.7976   -0.0000 </r>
       <r>    4.2008   -0.0000 </r>
       <r>    4.5300   -0.0000 </r>
       <r>    5.5237   -0.0000 </r>
       <r>    5.5480   -0.0000 </r>
      </set>
      <set comment="kpoint 10">
       <r>  -23.7710    1.0000 </r>
       <r>  -10.0970    1.0000 </r>
       <r>   -7.9806    1.0000 </r>
       <r>   -7.4266    1.0000 </r>
       <r>   -6.6962    1.0000 </r>
       <r>   -6.5861    1.0000 </r>
       <r>   -6.5842    1.0000 </r>
       <r>   -6.1223    1.0000 </r>
       <r>   -6.1011    1.0000 </r>
       <r>   -5.7294    1.0000 </r>
       <r>   -5.6760    1.0000 </r>
       <r>   -5.6034    1.0000 </r>
       <r>   -5.5847    1.0000 </r>
       <r>   -5.4170    1.0000 </r>
       <r>   -5.3964    1.0000 </r>
       <r>   -5.2376    1.0000 </r>
       <r>   -5.2320    1.0000 </r>
       <r>   -5.0866    1.0000 </r>
       <r>   -5.0289    1.0000 </r>
       <r>   -4.9639    1.0000 </r>
       <r>   -4.7677    1.0000 </r>
       <r>   -4.7620    1.0000 </r>
       <r>   -4.6160    1.0000 </r>
       <r>   -4.5105    1.0000 </r>
       <r>   -4.3256    1.0000 </r>
       <r>   -4.2799    1.0000 </r>
       <r>   -4.2048    1.0000 </r>
       <r>   -4.0776    1.0000 </r>
       <r>   -3.9138    1.0000 </r>
       <r>   -3.8675    1.0000 </r>
       <r>   -3.7583    1.0000 </r>
       <r>   -3.7254    1.0000 </r>
       <r>   -3.6825    1.0000 </r>
       <r>   -3.4713    1.0000 </r>
       <r>   -3.3818    1.0000 </r>
       <r>   -3.3360    1.0000 </r>
       <r>   -3.2618    1.0000 </r>
       <r>   -3.2496    1.0000 </r>
       <r>   -3.1213    1.0000 </r>
       <r>   -3.0807    1.0000 </r>
       <r>   -3.0591    1.0000 </r>
       <r>   -3.0259    1.0000 </r>
       <r>   -2.9849    1.0000 </r>
       <r>   -2.9093    1.0000 </r>
       <r>   -2.8841    1.0000 </r>
       <r>   -2.7846    1.0000 </r>
       <r>   -2.6860    1.0000 </r>
       <r>   -2.6531    1.0000 </r>
       <r>   -2.6379    1.0000 </r>
       <r>   -2.4826    1.0000 </r>
       <r>   -2.4738    1.0000 </r>
       <r>   -2.3375    1.0000 </r>
       <r>   -2.2501    1.0000 </r>
       <r>   -2.1604    1.0000 </r>
       <r>   -2.0969    1.0000 </r>
       <r>   -2.0633    1.0000 </r>
       <r>   -2.0467    1.0000 </r>
       <r>   -1.9950    1.0000 </r>
       <r>   -1.9583    1.0000 </r>
       <r>   -1.8412    1.0000 </r>
       <r>   -1.7807    1.0000 </r>
       <r>   -1.7368    1.0000 </r>
       <r>   -1.7263    1.0000 </r>
       <r>   -1.6547    1.0000 </r>
       <r>   -1.5745    1.0000 </r>
       <r>   -1.3238    1.0000 </r>
       <r>   -1.1899    1.0000 </r>
       <r>   -1.1333    1.0000 </r>
       <r>   -1.0930    1.0000 </r>
       <r>   -1.0097    1.0000 </r>
       <r>   -0.9474    1.0000 </r>
       <r>   -0.8234    1.0000 </r>
       <r>   -0.7348    1.0000 </r>
       <r>   -0.7119    1.0000 </r>
       <r>   -0.6854    1.0000 </r>
       <r>   -0.4985    1.0000 </r>
       <r>   -0.3158    1.0010 </r>
       <r>   -0.2379    1.0049 </r>
       <r>   -0.1659    1.0151 </r>
       <r>   -0.1437    1.0198 </r>
       <r>   -0.1148    1.0265 </r>
       <r>   -0.0771    1.0338 </r>
       <r>   -0.0115    1.0261 </r>
       <r>    0.0375    0.9805 </r>
       <r>    0.1745    0.5671 </r>
       <r>    0.2131    0.4046 </r>
       <r>    0.2702    0.1903 </r>
       <r>    0.3430    0.0200 </r>
       <r>    0.3602   -0.0015 </r>
       <r>    0.4933   -0.0270 </r>
       <r>    0.5407   -0.0164 </r>
       <r>    0.7378   -0.0004 </r>
       <r>    1.5444   -0.0000 </r>
       <r>    1.6066   -0.0000 </r>
       <r>    2.4537   -0.0000 </r>
       <r>    2.9516   -0.0000 </r>
       <r>    3.2920   -0.0000 </r>
       <r>    3.6705   -0.0000 </r>
       <r>    3.7833   -0.0000 </r>
       <r>    3.8787   -0.0000 </r>
       <r>    4.1508   -0.0000 </r>
       <r>    4.7071   -0.0000 </r>
       <r>    4.7894   -0.0000 </r>
       <r>    5.1002   -0.0000 </r>
      </set>
      <set comment="kpoint 11">
       <r>  -23.7711    1.0000 </r>
       <r>  -10.0926    1.0000 </r>
       <r>   -7.7367    1.0000 </r>
       <r>   -7.4009    1.0000 </r>
       <r>   -6.6697    1.0000 </r>
       <r>   -6.5850    1.0000 </r>
       <r>   -6.5846    1.0000 </r>
       <r>   -6.4606    1.0000 </r>
       <r>   -5.8965    1.0000 </r>
       <r>   -5.5724    1.0000 </r>
       <r>   -5.4686    1.0000 </r>
       <r>   -5.4590    1.0000 </r>
       <r>   -5.3985    1.0000 </r>
       <r>   -5.3664    1.0000 </r>
       <r>   -5.3327    1.0000 </r>
       <r>   -5.2788    1.0000 </r>
       <r>   -5.0054    1.0000 </r>
       <r>   -4.9437    1.0000 </r>
       <r>   -4.9173    1.0000 </r>
       <r>   -4.8353    1.0000 </r>
       <r>   -4.7363    1.0000 </r>
       <r>   -4.6744    1.0000 </r>
       <r>   -4.4063    1.0000 </r>
       <r>   -4.3500    1.0000 </r>
       <r>   -4.2242    1.0000 </r>
       <r>   -4.2083    1.0000 </r>
       <r>   -4.2013    1.0000 </r>
       <r>   -4.0937    1.0000 </r>
       <r>   -3.9893    1.0000 </r>
       <r>   -3.9412    1.0000 </r>
       <r>   -3.8499    1.0000 </r>
       <r>   -3.7623    1.0000 </r>
       <r>   -3.6147    1.0000 </r>
       <r>   -3.5607    1.0000 </r>
       <r>   -3.5094    1.0000 </r>
       <r>   -3.4260    1.0000 </r>
       <r>   -3.3232    1.0000 </r>
       <r>   -3.3212    1.0000 </r>
       <r>   -3.2426    1.0000 </r>
       <r>   -3.1649    1.0000 </r>
       <r>   -3.1238    1.0000 </r>
       <r>   -3.0055    1.0000 </r>
       <r>   -2.9752    1.0000 </r>
       <r>   -2.8661    1.0000 </r>
       <r>   -2.7498    1.0000 </r>
       <r>   -2.7180    1.0000 </r>
       <r>   -2.6686    1.0000 </r>
       <r>   -2.6626    1.0000 </r>
       <r>   -2.6321    1.0000 </r>
       <r>   -2.5161    1.0000 </r>
       <r>   -2.5059    1.0000 </r>
       <r>   -2.4305    1.0000 </r>
       <r>   -2.3578    1.0000 </r>
       <r>   -2.3309    1.0000 </r>
       <r>   -2.2775    1.0000 </r>
       <r>   -2.2341    1.0000 </r>
       <r>   -2.1591    1.0000 </r>
       <r>   -2.1046    1.0000 </r>
       <r>   -2.0862    1.0000 </r>
       <r>   -1.9695    1.0000 </r>
       <r>   -1.8849    1.0000 </r>
       <r>   -1.8752    1.0000 </r>
       <r>   -1.7687    1.0000 </r>
       <r>   -1.6499    1.0000 </r>
       <r>   -1.5458    1.0000 </r>
       <r>   -1.4083    1.0000 </r>
       <r>   -1.3316    1.0000 </r>
       <r>   -1.2772    1.0000 </r>
       <r>   -1.1727    1.0000 </r>
       <r>   -1.0987    1.0000 </r>
       <r>   -1.0764    1.0000 </r>
       <r>   -1.0186    1.0000 </r>
       <r>   -0.9800    1.0000 </r>
       <r>   -0.9587    1.0000 </r>
       <r>   -0.8514    1.0000 </r>
       <r>   -0.8102    1.0000 </r>
       <r>   -0.7350    1.0000 </r>
       <r>   -0.6269    1.0000 </r>
       <r>   -0.4703    1.0000 </r>
       <r>   -0.4647    1.0000 </r>
       <r>   -0.2917    1.0017 </r>
       <r>   -0.1070    1.0282 </r>
       <r>   -0.0963    1.0305 </r>
       <r>    0.1188    0.7826 </r>
       <r>    0.1298    0.7440 </r>
       <r>    0.2159    0.3931 </r>
       <r>    0.2616    0.2189 </r>
       <r>    0.4138   -0.0334 </r>
       <r>    0.4631   -0.0330 </r>
       <r>    0.5091   -0.0234 </r>
       <r>    1.1519   -0.0000 </r>
       <r>    1.9578   -0.0000 </r>
       <r>    1.9777   -0.0000 </r>
       <r>    2.2412   -0.0000 </r>
       <r>    2.2694   -0.0000 </r>
       <r>    2.5522   -0.0000 </r>
       <r>    3.1474   -0.0000 </r>
       <r>    3.1577   -0.0000 </r>
       <r>    3.4256   -0.0000 </r>
       <r>    3.7977   -0.0000 </r>
       <r>    4.2009   -0.0000 </r>
       <r>    4.5300   -0.0000 </r>
       <r>    5.5246   -0.0000 </r>
       <r>    5.5480   -0.0000 </r>
      </set>
      <set comment="kpoint 12">
       <r>  -23.7708    1.0000 </r>
       <r>  -10.0863    1.0000 </r>
       <r>   -7.4828    1.0000 </r>
       <r>   -6.9501    1.0000 </r>
       <r>   -6.8662    1.0000 </r>
       <r>   -6.5813    1.0000 </r>
       <r>   -6.5803    1.0000 </r>
       <r>   -5.9685    1.0000 </r>
       <r>   -5.9525    1.0000 </r>
       <r>   -5.8442    1.0000 </r>
       <r>   -5.3877    1.0000 </r>
       <r>   -5.1541    1.0000 </r>
       <r>   -5.1369    1.0000 </r>
       <r>   -5.0666    1.0000 </r>
       <r>   -5.0004    1.0000 </r>
       <r>   -4.8876    1.0000 </r>
       <r>   -4.8376    1.0000 </r>
       <r>   -4.7997    1.0000 </r>
       <r>   -4.7173    1.0000 </r>
       <r>   -4.5253    1.0000 </r>
       <r>   -4.5051    1.0000 </r>
       <r>   -4.4564    1.0000 </r>
       <r>   -4.4359    1.0000 </r>
       <r>   -4.3853    1.0000 </r>
       <r>   -4.2877    1.0000 </r>
       <r>   -4.1586    1.0000 </r>
       <r>   -4.1144    1.0000 </r>
       <r>   -4.1097    1.0000 </r>
       <r>   -4.0792    1.0000 </r>
       <r>   -4.0156    1.0000 </r>
       <r>   -3.9537    1.0000 </r>
       <r>   -3.9268    1.0000 </r>
       <r>   -3.8931    1.0000 </r>
       <r>   -3.6924    1.0000 </r>
       <r>   -3.6586    1.0000 </r>
       <r>   -3.5650    1.0000 </r>
       <r>   -3.4784    1.0000 </r>
       <r>   -3.4259    1.0000 </r>
       <r>   -3.3746    1.0000 </r>
       <r>   -3.3054    1.0000 </r>
       <r>   -3.2786    1.0000 </r>
       <r>   -3.2571    1.0000 </r>
       <r>   -3.1656    1.0000 </r>
       <r>   -3.1410    1.0000 </r>
       <r>   -3.1079    1.0000 </r>
       <r>   -3.0094    1.0000 </r>
       <r>   -2.9930    1.0000 </r>
       <r>   -2.8421    1.0000 </r>
       <r>   -2.7731    1.0000 </r>
       <r>   -2.7466    1.0000 </r>
       <r>   -2.6204    1.0000 </r>
       <r>   -2.5765    1.0000 </r>
       <r>   -2.4904    1.0000 </r>
       <r>   -2.4516    1.0000 </r>
       <r>   -2.4299    1.0000 </r>
       <r>   -2.3385    1.0000 </r>
       <r>   -2.2392    1.0000 </r>
       <r>   -2.0066    1.0000 </r>
       <r>   -1.9108    1.0000 </r>
       <r>   -1.8567    1.0000 </r>
       <r>   -1.8442    1.0000 </r>
       <r>   -1.7303    1.0000 </r>
       <r>   -1.6910    1.0000 </r>
       <r>   -1.6215    1.0000 </r>
       <r>   -1.5277    1.0000 </r>
       <r>   -1.4591    1.0000 </r>
       <r>   -1.3453    1.0000 </r>
       <r>   -1.2937    1.0000 </r>
       <r>   -1.2267    1.0000 </r>
       <r>   -1.1516    1.0000 </r>
       <r>   -1.0571    1.0000 </r>
       <r>   -0.9769    1.0000 </r>
       <r>   -0.9389    1.0000 </r>
       <r>   -0.8745    1.0000 </r>
       <r>   -0.8139    1.0000 </r>
       <r>   -0.7530    1.0000 </r>
       <r>   -0.6284    1.0000 </r>
       <r>   -0.5370    1.0000 </r>
       <r>   -0.5090    1.0000 </r>
       <r>   -0.4572    1.0000 </r>
       <r>   -0.3681    1.0003 </r>
       <r>   -0.1870    1.0113 </r>
       <r>   -0.1033    1.0290 </r>
       <r>   -0.0837    1.0328 </r>
       <r>   -0.0351    1.0338 </r>
       <r>    0.0099    1.0119 </r>
       <r>    0.1218    0.7725 </r>
       <r>    0.1797    0.5455 </r>
       <r>    0.2812    0.1562 </r>
       <r>    0.5070   -0.0239 </r>
       <r>    0.6237   -0.0045 </r>
       <r>    0.6829   -0.0014 </r>
       <r>    1.2370   -0.0000 </r>
       <r>    1.8682   -0.0000 </r>
       <r>    2.5596   -0.0000 </r>
       <r>    3.0939   -0.0000 </r>
       <r>    3.2994   -0.0000 </r>
       <r>    3.3929   -0.0000 </r>
       <r>    3.8434   -0.0000 </r>
       <r>    4.1236   -0.0000 </r>
       <r>    4.8031   -0.0000 </r>
       <r>    5.1300   -0.0000 </r>
       <r>    5.4162   -0.0000 </r>
       <r>    5.6105   -0.0000 </r>
      </set>
      <set comment="kpoint 13">
       <r>  -23.7708    1.0000 </r>
       <r>  -10.0863    1.0000 </r>
       <r>   -7.4828    1.0000 </r>
       <r>   -6.9501    1.0000 </r>
       <r>   -6.8661    1.0000 </r>
       <r>   -6.5814    1.0000 </r>
       <r>   -6.5801    1.0000 </r>
       <r>   -5.9685    1.0000 </r>
       <r>   -5.9525    1.0000 </r>
       <r>   -5.8442    1.0000 </r>
       <r>   -5.3877    1.0000 </r>
       <r>   -5.1541    1.0000 </r>
       <r>   -5.1369    1.0000 </r>
       <r>   -5.0666    1.0000 </r>
       <r>   -5.0004    1.0000 </r>
       <r>   -4.8876    1.0000 </r>
       <r>   -4.8376    1.0000 </r>
       <r>   -4.7997    1.0000 </r>
       <r>   -4.7173    1.0000 </r>
       <r>   -4.5253    1.0000 </r>
       <r>   -4.5051    1.0000 </r>
       <r>   -4.4564    1.0000 </r>
       <r>   -4.4359    1.0000 </r>
       <r>   -4.3853    1.0000 </r>
       <r>   -4.2877    1.0000 </r>
       <r>   -4.1586    1.0000 </r>
       <r>   -4.1144    1.0000 </r>
       <r>   -4.1097    1.0000 </r>
       <r>   -4.0792    1.0000 </r>
       <r>   -4.0156    1.0000 </r>
       <r>   -3.9537    1.0000 </r>
       <r>   -3.9268    1.0000 </r>
       <r>   -3.8931    1.0000 </r>
       <r>   -3.6924    1.0000 </r>
       <r>   -3.6586    1.0000 </r>
       <r>   -3.5650    1.0000 </r>
       <r>   -3.4784    1.0000 </r>
       <r>   -3.4259    1.0000 </r>
       <r>   -3.3746    1.0000 </r>
       <r>   -3.3054    1.0000 </r>
       <r>   -3.2786    1.0000 </r>
       <r>   -3.2571    1.0000 </r>
       <r>   -3.1656    1.0000 </r>
       <r>   -3.1411    1.0000 </r>
       <r>   -3.1078    1.0000 </r>
       <r>   -3.0094    1.0000 </r>
       <r>   -2.9931    1.0000 </r>
       <r>   -2.8420    1.0000 </r>
       <r>   -2.7731    1.0000 </r>
       <r>   -2.7466    1.0000 </r>
       <r>   -2.6204    1.0000 </r>
[...]
        <r>  0.0000  0.0003  0.0001 </r>
        <r>  0.0000  0.0010  0.0000 </r>
       </set>
       <set comment="band 83">
        <r>  0.0014  0.0015  0.0841 </r>
        <r>  0.0003  0.0002  0.0228 </r>
        <r>  0.0010  0.0016  0.0982 </r>
        <r>  0.0010  0.0016  0.0982 </r>
        <r>  0.0000  0.0004  0.0363 </r>
        <r>  0.0000  0.0004  0.0363 </r>
        <r>  0.0000  0.0002  0.0235 </r>
        <r>  0.0000  0.0001  0.1875 </r>
        <r>  0.0001  0.0004  0.0699 </r>
        <r>  0.0010  0.0007  0.0760 </r>
        <r>  0.0002  0.0005  0.0651 </r>
        <r>  0.0002  0.0005  0.0651 </r>
        <r>  0.0003  0.0001  0.0173 </r>
        <r>  0.0007  0.0003  0.0082 </r>
        <r>  0.0004  0.0006  0.0183 </r>
        <r>  0.0004  0.0006  0.0183 </r>
        <r>  0.0000  0.0003  0.0000 </r>
        <r>  0.0000  0.0005  0.0000 </r>
       </set>
       <set comment="band 84">
        <r>  0.0001  0.0010  0.0542 </r>
        <r>  0.0002  0.0009  0.0357 </r>
        <r>  0.0005  0.0010  0.0356 </r>
        <r>  0.0005  0.0010  0.0356 </r>
        <r>  0.0001  0.0006  0.0875 </r>
        <r>  0.0001  0.0006  0.0875 </r>
        <r>  0.0000  0.0005  0.0305 </r>
        <r>  0.0000  0.0003  0.0262 </r>
        <r>  0.0000  0.0005  0.0361 </r>
        <r>  0.0000  0.0002  0.0945 </r>
        <r>  0.0001  0.0004  0.0335 </r>
        <r>  0.0001  0.0004  0.0335 </r>
        <r>  0.0002  0.0010  0.0363 </r>
        <r>  0.0000  0.0009  0.0496 </r>
        <r>  0.0004  0.0030  0.1272 </r>
        <r>  0.0004  0.0030  0.1272 </r>
        <r>  0.0002  0.0004  0.0001 </r>
        <r>  0.0000  0.0003  0.0000 </r>
       </set>
       <set comment="band 85">
        <r>  0.0017  0.0002  0.0495 </r>
        <r>  0.0000  0.0014  0.0667 </r>
        <r>  0.0006  0.0003  0.0842 </r>
        <r>  0.0006  0.0003  0.0842 </r>
        <r>  0.0002  0.0005  0.0486 </r>
        <r>  0.0002  0.0005  0.0486 </r>
        <r>  0.0000  0.0001  0.0765 </r>
        <r>  0.0000  0.0002  0.0756 </r>
        <r>  0.0000  0.0000  0.1048 </r>
        <r>  0.0002  0.0002  0.0544 </r>
        <r>  0.0001  0.0004  0.0301 </r>
        <r>  0.0001  0.0004  0.0301 </r>
        <r>  0.0001  0.0034  0.0182 </r>
        <r>  0.0001  0.0020  0.0310 </r>
        <r>  0.0003  0.0002  0.0623 </r>
        <r>  0.0003  0.0002  0.0623 </r>
        <r>  0.0014  0.0012  0.0003 </r>
        <r>  0.0001  0.0012  0.0000 </r>
       </set>
       <set comment="band 86">
        <r>  0.0002  0.0001  0.0187 </r>
        <r>  0.0011  0.0004  0.0841 </r>
        <r>  0.0004  0.0011  0.0460 </r>
        <r>  0.0004  0.0011  0.0460 </r>
        <r>  0.0001  0.0002  0.0731 </r>
        <r>  0.0001  0.0002  0.0731 </r>
        <r>  0.0003  0.0001  0.1108 </r>
        <r>  0.0000  0.0002  0.0237 </r>
        <r>  0.0003  0.0001  0.0967 </r>
        <r>  0.0000  0.0002  0.0342 </r>
        <r>  0.0003  0.0001  0.0810 </r>
        <r>  0.0003  0.0001  0.0809 </r>
        <r>  0.0000  0.0002  0.0147 </r>
        <r>  0.0006  0.0006  0.0864 </r>
        <r>  0.0002  0.0009  0.0342 </r>
        <r>  0.0002  0.0009  0.0342 </r>
        <r>  0.0001  0.0001  0.0000 </r>
        <r>  0.0000  0.0002  0.0000 </r>
       </set>
       <set comment="band 87">
        <r>  0.0000  0.0001  0.0783 </r>
        <r>  0.0018  0.0016  0.0934 </r>
        <r>  0.0001  0.0001  0.0181 </r>
        <r>  0.0001  0.0001  0.0181 </r>
        <r>  0.0000  0.0002  0.0333 </r>
        <r>  0.0000  0.0002  0.0333 </r>
        <r>  0.0001  0.0013  0.1834 </r>
        <r>  0.0003  0.0008  0.2132 </r>
        <r>  0.0001  0.0010  0.0891 </r>
        <r>  0.0005  0.0003  0.1007 </r>
        <r>  0.0001  0.0002  0.0176 </r>
        <r>  0.0001  0.0002  0.0176 </r>
        <r>  0.0001  0.0009  0.0106 </r>
        <r>  0.0001  0.0003  0.0115 </r>
        <r>  0.0004  0.0007  0.0110 </r>
        <r>  0.0004  0.0007  0.0110 </r>
        <r>  0.0006  0.0007  0.0001 </r>
        <r>  0.0000  0.0005  0.0000 </r>
       </set>
       <set comment="band 88">
        <r>  0.0000  0.0002  0.0090 </r>
        <r>  0.0000  0.0002  0.0058 </r>
        <r>  0.0004  0.0004  0.0490 </r>
        <r>  0.0004  0.0004  0.0490 </r>
        <r>  0.0004  0.0008  0.1603 </r>
        <r>  0.0004  0.0008  0.1603 </r>
        <r>  0.0000  0.0001  0.0187 </r>
        <r>  0.0000  0.0001  0.0144 </r>
        <r>  0.0000  0.0000  0.0169 </r>
        <r>  0.0000  0.0001  0.0129 </r>
        <r>  0.0005  0.0010  0.1685 </r>
        <r>  0.0005  0.0010  0.1686 </r>
        <r>  0.0001  0.0004  0.0065 </r>
        <r>  0.0001  0.0002  0.0104 </r>
        <r>  0.0004  0.0005  0.0490 </r>
        <r>  0.0004  0.0005  0.0490 </r>
        <r>  0.0000  0.0000  0.0000 </r>
        <r>  0.0000  0.0001  0.0000 </r>
       </set>
       <set comment="band 89">
        <r>  0.0063  0.0044  0.0653 </r>
        <r>  0.0047  0.0005  0.0137 </r>
        <r>  0.0006  0.0011  0.0169 </r>
        <r>  0.0006  0.0011  0.0169 </r>
        <r>  0.0004  0.0008  0.0450 </r>
        <r>  0.0004  0.0008  0.0450 </r>
        <r>  0.0000  0.0003  0.0575 </r>
        <r>  0.0001  0.0001  0.0095 </r>
        <r>  0.0012  0.0008  0.0654 </r>
        <r>  0.0002  0.0008  0.1246 </r>
        <r>  0.0025  0.0007  0.0285 </r>
        <r>  0.0025  0.0007  0.0285 </r>
        <r>  0.0031  0.0074  0.0830 </r>
        <r>  0.0000  0.0020  0.1089 </r>
        <r>  0.0000  0.0003  0.0792 </r>
        <r>  0.0000  0.0003  0.0792 </r>
        <r>  0.0056  0.0042  0.0012 </r>
        <r>  0.0004  0.0039  0.0000 </r>
       </set>
       <set comment="band 90">
        <r>  0.0019  0.0009  0.0068 </r>
        <r>  0.0000  0.0006  0.0049 </r>
        <r>  0.0006  0.0008  0.0059 </r>
        <r>  0.0006  0.0008  0.0059 </r>
        <r>  0.0013  0.0015  0.0311 </r>
        <r>  0.0013  0.0015  0.0311 </r>
        <r>  0.0015  0.0018  0.0300 </r>
        <r>  0.0009  0.0011  0.0358 </r>
        <r>  0.0095  0.0061  0.0861 </r>
        <r>  0.0059  0.0066  0.0917 </r>
        <r>  0.0078  0.0063  0.0643 </r>
        <r>  0.0078  0.0063  0.0643 </r>
        <r>  0.0041  0.0068  0.0527 </r>
        <r>  0.0097  0.0042  0.0672 </r>
        <r>  0.0047  0.0078  0.1099 </r>
        <r>  0.0047  0.0078  0.1099 </r>
        <r>  0.0001  0.0015  0.0001 </r>
        <r>  0.0000  0.0022  0.0000 </r>
       </set>
       <set comment="band 91">
        <r>  0.0107  0.0068  0.0897 </r>
        <r>  0.0029  0.0091  0.1219 </r>
        <r>  0.0076  0.0083  0.1166 </r>
        <r>  0.0076  0.0083  0.1166 </r>
        <r>  0.0071  0.0056  0.0480 </r>
        <r>  0.0071  0.0056  0.0480 </r>
        <r>  0.0087  0.0053  0.0553 </r>
        <r>  0.0055  0.0064  0.0573 </r>
        <r>  0.0005  0.0005  0.0154 </r>
        <r>  0.0020  0.0022  0.0060 </r>
        <r>  0.0003  0.0013  0.0136 </r>
        <r>  0.0003  0.0013  0.0136 </r>
        <r>  0.0004  0.0031  0.0109 </r>
        <r>  0.0056  0.0028  0.0129 </r>
        <r>  0.0033  0.0030  0.0170 </r>
        <r>  0.0033  0.0030  0.0170 </r>
        <r>  0.0000  0.0007  0.0000 </r>
        <r>  0.0000  0.0016  0.0000 </r>
       </set>
       <set comment="band 92">
        <r>  0.0049  0.0043  0.0427 </r>
        <r>  0.0005  0.0047  0.0463 </r>
        <r>  0.0187  0.0055  0.0308 </r>
        <r>  0.0187  0.0055  0.0308 </r>
        <r>  0.0007  0.0022  0.0742 </r>
        <r>  0.0007  0.0022  0.0742 </r>
        <r>  0.0036  0.0052  0.0200 </r>
        <r>  0.0086  0.0027  0.0252 </r>
        <r>  0.0061  0.0028  0.0145 </r>
        <r>  0.0042  0.0027  0.0274 </r>
        <r>  0.0034  0.0027  0.0706 </r>
        <r>  0.0034  0.0027  0.0706 </r>
        <r>  0.0001  0.0047  0.0180 </r>
        <r>  0.0001  0.0028  0.0343 </r>
        <r>  0.0169  0.0074  0.0409 </r>
        <r>  0.0169  0.0074  0.0409 </r>
        <r>  0.0001  0.0013  0.0001 </r>
        <r>  0.0000  0.0044  0.0000 </r>
       </set>
       <set comment="band 93">
        <r>  0.0017  0.0081  0.0318 </r>
        <r>  0.0364  0.0097  0.0279 </r>
        <r>  0.0065  0.0062  0.0380 </r>
        <r>  0.0065  0.0062  0.0380 </r>
        <r>  0.0096  0.0031  0.0258 </r>
        <r>  0.0096  0.0031  0.0258 </r>
        <r>  0.0012  0.0022  0.0586 </r>
        <r>  0.0033  0.0064  0.0219 </r>
        <r>  0.0010  0.0035  0.0861 </r>
        <r>  0.0051  0.0044  0.0227 </r>
        <r>  0.0030  0.0077  0.0310 </r>
        <r>  0.0030  0.0077  0.0310 </r>
        <r>  0.0011  0.0190  0.0769 </r>
        <r>  0.0287  0.0029  0.0323 </r>
        <r>  0.0003  0.0045  0.0219 </r>
        <r>  0.0003  0.0045  0.0219 </r>
        <r>  0.0109  0.0082  0.0017 </r>
        <r>  0.0007  0.0075  0.0000 </r>
       </set>
       <set comment="band 94">
        <r>  0.0325  0.0138  0.0242 </r>
        <r>  0.0014  0.0071  0.0267 </r>
        <r>  0.0117  0.0081  0.0308 </r>
        <r>  0.0117  0.0081  0.0308 </r>
        <r>  0.0112  0.0051  0.0298 </r>
        <r>  0.0112  0.0051  0.0298 </r>
        <r>  0.0096  0.0067  0.0155 </r>
        <r>  0.0009  0.0064  0.0354 </r>
        <r>  0.0013  0.0093  0.0172 </r>
        <r>  0.0048  0.0024  0.0456 </r>
        <r>  0.0039  0.0072  0.0339 </r>
        <r>  0.0039  0.0072  0.0339 </r>
        <r>  0.0074  0.0207  0.0476 </r>
        <r>  0.0014  0.0138  0.0090 </r>
        <r>  0.0131  0.0070  0.0387 </r>
        <r>  0.0131  0.0070  0.0387 </r>
        <r>  0.0060  0.0118  0.0013 </r>
        <r>  0.0006  0.0135  0.0002 </r>
       </set>
       <set comment="band 95">
        <r>  0.0003  0.0014  0.0398 </r>
        <r>  0.0004  0.0013  0.0406 </r>
        <r>  0.0139  0.0174  0.0139 </r>
        <r>  0.0139  0.0174  0.0139 </r>
        <r>  0.0061  0.0054  0.0086 </r>
        <r>  0.0061  0.0054  0.0086 </r>
        <r>  0.0287  0.0032  0.0328 </r>
        <r>  0.0317  0.0028  0.0341 </r>
        <r>  0.0253  0.0064  0.0295 </r>
        <r>  0.0197  0.0063  0.0344 </r>
        <r>  0.0075  0.0051  0.0150 </r>
        <r>  0.0075  0.0051  0.0150 </r>
        <r>  0.0000  0.0040  0.0499 </r>
        <r>  0.0000  0.0003  0.0479 </r>
        <r>  0.0042  0.0209  0.0121 </r>
        <r>  0.0042  0.0209  0.0121 </r>
        <r>  0.0000  0.0130  0.0002 </r>
        <r>  0.0000  0.0179  0.0003 </r>
       </set>
       <set comment="band 96">
        <r>  0.0022  0.0008  0.0086 </r>
        <r>  0.0072  0.0046  0.0050 </r>
        <r>  0.0023  0.0030  0.0065 </r>
        <r>  0.0023  0.0030  0.0065 </r>
        <r>  0.0109  0.0019  0.0068 </r>
        <r>  0.0109  0.0019  0.0068 </r>
        <r>  0.0008  0.0043  0.0036 </r>
        <r>  0.0041  0.0036  0.0109 </r>
        <r>  0.0069  0.0034  0.0119 </r>
        <r>  0.0123  0.0039  0.0121 </r>
        <r>  0.0017  0.0037  0.0173 </r>
        <r>  0.0017  0.0037  0.0173 </r>
        <r>  0.0065  0.0149  0.0937 </r>
        <r>  0.0060  0.0040  0.0260 </r>
        <r>  0.0009  0.0088  0.0121 </r>
        <r>  0.0009  0.0088  0.0121 </r>
        <r>  0.0012  0.1689  0.0022 </r>
        <r>  0.0001  0.1126  0.0041 </r>
       </set>
       <set comment="band 97">
        <r>  0.0019  0.0098  0.0118 </r>
        <r>  0.0107  0.0278  0.0053 </r>
        <r>  0.0029  0.0013  0.0322 </r>
        <r>  0.0029  0.0013  0.0322 </r>
        <r>  0.0163  0.0092  0.0216 </r>
        <r>  0.0163  0.0092  0.0216 </r>
        <r>  0.0010  0.0049  0.0098 </r>
        <r>  0.0222  0.0035  0.0253 </r>
        <r>  0.0072  0.0081  0.0041 </r>
        <r>  0.0065  0.0064  0.0213 </r>
        <r>  0.0307  0.0028  0.0240 </r>
        <r>  0.0306  0.0028  0.0240 </r>
        <r>  0.0012  0.0053  0.0554 </r>
        <r>  0.0587  0.0209  0.0115 </r>
        <r>  0.0018  0.0052  0.0196 </r>
        <r>  0.0018  0.0052  0.0196 </r>
        <r>  0.0075  0.0335  0.0015 </r>
        <r>  0.0005  0.0170  0.0007 </r>
       </set>
       <set comment="band 98">
        <r>  0.0001  0.0003  0.0054 </r>
        <r>  0.0005  0.0011  0.0052 </r>
        <r>  0.0008  0.0027  0.0011 </r>
        <r>  0.0008  0.0027  0.0011 </r>
        <r>  0.0029  0.0012  0.0031 </r>
        <r>  0.0029  0.0012  0.0031 </r>
        <r>  0.0007  0.0015  0.0049 </r>
        <r>  0.0028  0.0009  0.0024 </r>
        <r>  0.0096  0.0002  0.0026 </r>
        <r>  0.0028  0.0009  0.0078 </r>
        <r>  0.0010  0.0017  0.0026 </r>
        <r>  0.0010  0.0017  0.0026 </r>
        <r>  0.0004  0.0050  0.0713 </r>
        <r>  0.0000  0.0046  0.0028 </r>
        <r>  0.0196  0.0028  0.0116 </r>
        <r>  0.0196  0.0028  0.0117 </r>
        <r>  0.0002  0.2628  0.0026 </r>
        <r>  0.0000  0.1445  0.0066 </r>
       </set>
       <set comment="band 99">
        <r>  0.0077  0.0113  0.0196 </r>
        <r>  0.0141  0.0051  0.0151 </r>
        <r>  0.0161  0.0037  0.0234 </r>
        <r>  0.0161  0.0037  0.0234 </r>
        <r>  0.0187  0.0163  0.0314 </r>
        <r>  0.0187  0.0163  0.0314 </r>
        <r>  0.0333  0.0096  0.0376 </r>
        <r>  0.0253  0.0101  0.0336 </r>
        <r>  0.0098  0.0115  0.0327 </r>
        <r>  0.0208  0.0153  0.0210 </r>
        <r>  0.0256  0.0085  0.0294 </r>
        <r>  0.0256  0.0085  0.0294 </r>
        <r>  0.0127  0.0035  0.0161 </r>
        <r>  0.0007  0.0021  0.0126 </r>
        <r>  0.0086  0.0029  0.0090 </r>
        <r>  0.0086  0.0029  0.0090 </r>
        <r>  0.0011  0.0270  0.0003 </r>
        <r>  0.0001  0.0149  0.0007 </r>
       </set>
       <set comment="band 100">
        <r>  0.0142  0.0264  0.0084 </r>
        <r>  0.0052  0.0005  0.0240 </r>
        <r>  0.0016  0.0089  0.0201 </r>
        <r>  0.0016  0.0089  0.0201 </r>
        <r>  0.0207  0.0086  0.0185 </r>
        <r>  0.0207  0.0086  0.0185 </r>
        <r>  0.0131  0.0155  0.0211 </r>
        <r>  0.0059  0.0083  0.0151 </r>
        <r>  0.0293  0.0055  0.0186 </r>
        <r>  0.0067  0.0065  0.0164 </r>
        <r>  0.0223  0.0119  0.0134 </r>
        <r>  0.0223  0.0119  0.0134 </r>
        <r>  0.0128  0.0044  0.0269 </r>
        <r>  0.0002  0.0112  0.0129 </r>
        <r>  0.0277  0.0116  0.0110 </r>
        <r>  0.0277  0.0116  0.0110 </r>
        <r>  0.0051  0.0301  0.0016 </r>
        <r>  0.0011  0.0113  0.0008 </r>
       </set>
       <set comment="band 101">
        <r>  0.0224  0.0127  0.0261 </r>
        <r>  0.0227  0.0133  0.0238 </r>
        <r>  0.0241  0.0115  0.0262 </r>
        <r>  0.0241  0.0115  0.0262 </r>
        <r>  0.0081  0.0067  0.0118 </r>
        <r>  0.0081  0.0067  0.0117 </r>
        <r>  0.0110  0.0051  0.0083 </r>
        <r>  0.0094  0.0050  0.0162 </r>
        <r>  0.0059  0.0090  0.0190 </r>
        <r>  0.0099  0.0044  0.0100 </r>
        <r>  0.0051  0.0076  0.0129 </r>
        <r>  0.0051  0.0076  0.0130 </r>
        <r>  0.0321  0.0092  0.0237 </r>
        <r>  0.0206  0.0103  0.0209 </r>
        <r>  0.0464  0.0065  0.0267 </r>
        <r>  0.0464  0.0065  0.0267 </r>
        <r>  0.0001  0.0203  0.0002 </r>
        <r>  0.0003  0.0091  0.0006 </r>
       </set>
       <set comment="band 102">
        <r>  0.0004  0.0010  0.0225 </r>
        <r>  0.0000  0.0001  0.0202 </r>
        <r>  0.0004  0.0326  0.0050 </r>
        <r>  0.0004  0.0326  0.0050 </r>
        <r>  0.0012  0.0090  0.0218 </r>
        <r>  0.0012  0.0090  0.0218 </r>
        <r>  0.0006  0.0210  0.0128 </r>
        <r>  0.0001  0.0295  0.0064 </r>
        <r>  0.0021  0.0245  0.0098 </r>
        <r>  0.0025  0.0216  0.0072 </r>
        <r>  0.0029  0.0110  0.0207 </r>
        <r>  0.0029  0.0110  0.0207 </r>
        <r>  0.0025  0.0010  0.0075 </r>
        <r>  0.0009  0.0006  0.0162 </r>
        <r>  0.0028  0.0281  0.0053 </r>
        <r>  0.0028  0.0281  0.0053 </r>
        <r>  0.0000  0.0109  0.0000 </r>
        <r>  0.0000  0.0001  0.0003 </r>
       </set>
       <set comment="band 103">
        <r>  0.0431  0.0024  0.0049 </r>
        <r>  0.0332  0.0047  0.0115 </r>
        <r>  0.0369  0.0005  0.0092 </r>
        <r>  0.0369  0.0005  0.0092 </r>
        <r>  0.0052  0.0098  0.0118 </r>
        <r>  0.0052  0.0098  0.0118 </r>
        <r>  0.0081  0.0064  0.0138 </r>
        <r>  0.0046  0.0060  0.0168 </r>
        <r>  0.0295  0.0080  0.0133 </r>
        <r>  0.0285  0.0058  0.0119 </r>
        <r>  0.0322  0.0055  0.0116 </r>
        <r>  0.0322  0.0055  0.0116 </r>
        <r>  0.0317  0.0028  0.0100 </r>
        <r>  0.0360  0.0097  0.0131 </r>
        <r>  0.0343  0.0037  0.0093 </r>
        <r>  0.0343  0.0037  0.0093 </r>
        <r>  0.0004  0.0038  0.0001 </r>
        <r>  0.0006  0.0005  0.0001 </r>
       </set>
       <set comment="band 104">
        <r>  0.0148  0.0046  0.0107 </r>
        <r>  0.0176  0.0054  0.0133 </r>
        <r>  0.0164  0.0053  0.0118 </r>
        <r>  0.0164  0.0053  0.0118 </r>
        <r>  0.0629  0.0101  0.0102 </r>
        <r>  0.0629  0.0101  0.0102 </r>
        <r>  0.0623  0.0108  0.0073 </r>
        <r>  0.0606  0.0095  0.0136 </r>
        <r>  0.0290  0.0117  0.0133 </r>
        <r>  0.0347  0.0106  0.0145 </r>
        <r>  0.0344  0.0107  0.0139 </r>
        <r>  0.0343  0.0107  0.0139 </r>
        <r>  0.0008  0.0015  0.0065 </r>
        <r>  0.0012  0.0035  0.0118 </r>
        <r>  0.0013  0.0050  0.0077 </r>
        <r>  0.0013  0.0050  0.0077 </r>
        <r>  0.0000  0.0063  0.0000 </r>
        <r>  0.0000  0.0011  0.0002 </r>
       </set>
      </set>
     </set>
    </set>
   </array>
  </projected>
 </calculation>
 <structure name="finalpos" >
  <crystal>
   <varray name="basis" >
    <v>       5.64384424       0.00000000       0.00000000 </v>
    <v>       2.82192212       4.88771248       0.00000000 </v>
    <v>       0.00000000       0.00000000      26.91226928 </v>
   </varray>
   <i name="volume">    742.38807929 </i>
   <varray name="rec_basis" >
    <v>       0.17718420      -0.10229734       0.00000000 </v>
    <v>       0.00000000       0.20459469       0.00000000 </v>
    <v>       0.00000000       0.00000000       0.03715777 </v>
   </varray>
  </crystal>
  <varray name="positions" >
   <v>       0.00000000       0.00000000       0.37157773 </v>
   <v>       0.50000000       0.00000000       0.37157773 </v>
   <v>       0.00000000       0.50000000       0.37157773 </v>
   <v>       0.50000000       0.50000000       0.37157773 </v>
   <v>       0.16666667       0.16666667       0.45719258 </v>
   <v>       0.66666667       0.16666667       0.45719258 </v>
   <v>       0.16666667       0.66666667       0.45719258 </v>
   <v>       0.66666667       0.66666667       0.45719258 </v>
   <v>       0.83591546       0.32816997       0.54264944 </v>
   <v>       0.33333290       0.33333339       0.54133566 </v>
   <v>       0.83591508       0.83591509       0.54264960 </v>
   <v>       0.32816966       0.83591564       0.54264937 </v>
   <v>       0.00000012       0.99999965       0.63611904 </v>
   <v>       0.50032901       0.99934173       0.62616445 </v>
   <v>       0.99934223       0.50032857       0.62616475 </v>
   <v>       0.50032879       0.50032845       0.62616366 </v>
   <v>       0.99999984       0.99999946       0.70481769 </v>
   <v>       0.99999958       0.99999954       0.74805389 </v>
  </varray>
  <varray name="selective"  type="logical" >
   <v type="logical" >  F  F  F </v>
   <v type="logical" >  F  F  F </v>
   <v type="logical" >  F  F  F </v>
   <v type="logical" >  F  F  F </v>
   <v type="logical" >  F  F  F </v>
   <v type="logical" >  F  F  F </v>
   <v type="logical" >  F  F  F </v>
   <v type="logical" >  F  F  F </v>
   <v type="logical" >  T  T  T </v>
   <v type="logical" >  T  T  T </v>
   <v type="logical" >  T  T  T </v>
   <v type="logical" >  T  T  T </v>
   <v type="logical" >  T  T  T </v>
   <v type="logical" >  T  T  T </v>
   <v type="logical" >  T  T  T </v>
   <v type="logical" >  T  T  T </v>
   <v type="logical" >  T  T  T </v>
   <v type="logical" >  T  T  T </v>
  </varray>
  <nose>
   <v>      -3.00000000       0.00000000       0.00010000       0.00010000 </v>
  </nose>
 </structure>
</modeling>
