unknown system                          
           1
     5.643844    0.000000    0.000000
     2.821922    4.887712    0.000000
     0.000000    0.000000   26.912269
   Pt   C    O 
  16   1   1
Direct configuration=     1
   0.00000000  0.00000000  0.37157773
   0.50000000  0.00000000  0.37157773
   0.00000000  0.50000000  0.37157773
   0.50000000  0.50000000  0.37157773
   0.16666667  0.16666667  0.45719258
   0.66666667  0.16666667  0.45719258
   0.16666667  0.66666667  0.45719258
   0.66666667  0.66666667  0.45719258
   0.83591546  0.32816997  0.54264944
   0.33333290  0.33333339  0.54133566
   0.83591508  0.83591509  0.54264960
   0.32816966  0.83591564  0.54264937
   0.00000012  0.99999965  0.63611904
   0.50032901  0.99934173  0.62616445
   0.99934223  0.50032857  0.62616475
   0.50032879  0.50032845  0.62616366
   0.99999984  0.99999946  0.70481769
   0.99999958  0.99999954  0.74805389
