   18   18    1    1
  0.4124378E+02  0.5643844E-09  0.5643844E-09  0.2691227E-08  0.5000000E-15
  1.000000000000000E-004
  CAR 
 unknown system                          
    170     13    104
 
  0.0000000E+00  0.0000000E+00  0.0000000E+00  0.4000000E-01
    1      -22.398794   1.000000
    2      -10.875387   1.000000
    3       -9.111089   1.000000
    4       -7.801281   1.000000
    5       -6.996518   1.000000
    6       -6.784853   1.000000
    7       -6.749655   1.000000
    8       -6.749551   1.000000
    9       -6.506144   1.000000
   10       -6.437349   1.000000
   11       -6.310411   1.000000
   12       -6.310376   1.000000
   13       -6.280508   1.000000
   14       -6.280448   1.000000
   15       -6.179889   1.000000
   16       -5.880444   1.000000
   17       -5.832647   1.000000
   18       -5.832612   1.000000
   19       -5.673790   1.000000
   20       -5.673717   1.000000
   21       -5.650211   1.000000
   22       -5.387002   1.000000
   23       -5.386974   1.000000
   24       -5.052531   1.000000
   25       -4.785503   1.000000
   26       -4.785471   1.000000
   27       -4.616784   1.000000
   28       -3.834111   1.000000
   29       -3.834068   1.000000
   30       -3.776185   1.000000
   31       -3.739640   1.000000
   32       -3.739619   1.000000
   33       -3.711594   1.000000
   34       -3.583711   1.000000
   35       -3.514994   1.000000
   36       -3.514988   1.000000
   37       -3.397835   1.000000
   38       -3.397799   1.000000
   39       -3.284955   1.000000
   40       -3.284951   1.000000
   41       -3.194169   1.000000
   42       -3.194103   1.000000
   43       -3.165074   1.000000
   44       -3.105352   1.000000
   45       -3.035629   1.000000
   46       -3.035609   1.000000
   47       -2.709371   1.000000
   48       -2.664398   1.000000
   49       -2.664346   1.000000
   50       -2.501908   1.000000
   51       -2.335837   1.000000
   52       -2.335803   1.000000
   53       -2.199092   1.000000
   54       -2.106086   1.000000
   55       -2.106074   1.000000
   56       -1.935317   1.000000
   57       -1.670849   1.000000
   58       -1.670800   1.000000
   59       -1.477670   1.000000
   60       -1.477630   1.000000
   61       -1.243265   1.000000
   62       -1.243212   1.000000
   63       -1.174418   1.000000
   64       -0.963700   1.000000
   65       -0.963694   1.000000
   66       -0.824317   1.000015
   67       -0.809782   1.000024
   68       -0.809644   1.000024
   69       -0.469878   1.026120
   70       -0.469788   1.026140
   71       -0.385163   1.033112
   72       -0.356534   1.021374
   73       -0.356441   1.021315
   74       -0.337503   1.006242
   75       -0.236425   0.788340
   76       -0.236333   0.788031
   77       -0.067269   0.141551
   78       -0.067220   0.141411
   79       -0.057308   0.114402
   80        0.012300  -0.007214
   81        0.012375  -0.007285
   82        0.030245  -0.021323
   83        0.040253  -0.026783
   84        0.120107  -0.031170
   85        0.155727  -0.023336
   86        0.155771  -0.023326
   87        0.299261  -0.002575
   88        0.299359  -0.002570
   89        0.302512  -0.002411
   90        0.603203  -0.000000
   91        0.783472  -0.000000
   92        0.783500  -0.000000
   93        1.650679  -0.000000
   94        1.857733  -0.000000
   95        1.857912  -0.000000
   96        2.446666  -0.000000
   97        2.473750  -0.000000
   98        2.473813  -0.000000
   99        2.682567  -0.000000
  100        2.694592  -0.000000
  101        2.694626  -0.000000
  102        3.322338  -0.000000
  103        3.322383  -0.000000
  104        4.957424  -0.000000
 
  0.2000000E+00  0.2775558E-16  0.0000000E+00  0.8000000E-01
    1      -22.398417   1.000000
    2      -10.777553   1.000000
    3       -8.798238   1.000000
    4       -7.528770   1.000000
    5       -6.878400   1.000000
    6       -6.723167   1.000000
    7       -6.606977   1.000000
    8       -6.475210   1.000000
    9       -6.399910   1.000000
   10       -6.272053   1.000000
   11       -6.196636   1.000000
   12       -6.136786   1.000000
   13       -6.102577   1.000000
   14       -6.062351   1.000000
   15       -5.953265   1.000000
   16       -5.732879   1.000000
   17       -5.680030   1.000000
   18       -5.668802   1.000000
   19       -5.561866   1.000000
   20       -5.412226   1.000000
   21       -5.408036   1.000000
   22       -5.275917   1.000000
   23       -5.209837   1.000000
   24       -4.930045   1.000000
   25       -4.710145   1.000000
   26       -4.688000   1.000000
   27       -4.602840   1.000000
   28       -3.982752   1.000000
   29       -3.950156   1.000000
   30       -3.887279   1.000000
   31       -3.800622   1.000000
   32       -3.752191   1.000000
   33       -3.706613   1.000000
   34       -3.603949   1.000000
   35       -3.585533   1.000000
   36       -3.486393   1.000000
   37       -3.345897   1.000000
   38       -3.328416   1.000000
   39       -3.288692   1.000000
   40       -3.260878   1.000000
   41       -3.194998   1.000000
   42       -3.152232   1.000000
   43       -3.129107   1.000000
   44       -3.069991   1.000000
   45       -3.057583   1.000000
   46       -2.994479   1.000000
   47       -2.944834   1.000000
   48       -2.864718   1.000000
   49       -2.808528   1.000000
   50       -2.805661   1.000000
   51       -2.674417   1.000000
   52       -2.650261   1.000000
   53       -2.338656   1.000000
   54       -2.250332   1.000000
   55       -2.060190   1.000000
   56       -1.994680   1.000000
   57       -1.880549   1.000000
   58       -1.842740   1.000000
   59       -1.655324   1.000000
   60       -1.611064   1.000000
   61       -1.494945   1.000000
   62       -1.474536   1.000000
   63       -1.375410   1.000000
   64       -1.344109   1.000000
   65       -1.311840   1.000000
   66       -1.240654   1.000000
   67       -1.235469   1.000000
   68       -1.149467   1.000000
   69       -1.020701   1.000000
   70       -0.845629   1.000008
   71       -0.824150   1.000015
   72       -0.701885   1.000466
   73       -0.661892   1.001190
   74       -0.601781   1.004075
   75       -0.558668   1.008583
   76       -0.521289   1.014783
   77       -0.513270   1.016391
   78       -0.444016   1.031604
   79       -0.436042   1.032982
   80       -0.406128   1.035443
   81       -0.276300   0.904162
   82       -0.220835   0.733361
   83       -0.207445   0.682604
   84       -0.192304   0.622103
   85       -0.140309   0.404236
   86       -0.008752   0.017534
   87        0.014712  -0.009461
   88        0.054830  -0.032105
   89        0.095070  -0.034843
   90        0.173690  -0.019251
   91        0.905416  -0.000000
   92        1.272733  -0.000000
   93        1.381223  -0.000000
   94        1.616804  -0.000000
   95        1.854187  -0.000000
   96        1.914969  -0.000000
   97        2.464129  -0.000000
   98        2.509114  -0.000000
   99        3.102160  -0.000000
  100        3.575076  -0.000000
  101        3.857826  -0.000000
  102        4.232455  -0.000000
  103        4.420132  -0.000000
  104        5.282618  -0.000000
 
  0.4000000E+00  0.5551115E-16  0.0000000E+00  0.8000000E-01
    1      -22.397679   1.000000
    2      -10.614582   1.000000
    3       -7.956746   1.000000
    4       -7.074498   1.000000
    5       -6.901095   1.000000
    6       -6.626957   1.000000
    7       -6.461099   1.000000
    8       -6.383886   1.000000
    9       -6.075283   1.000000
   10       -5.783412   1.000000
   11       -5.711441   1.000000
   12       -5.689839   1.000000
   13       -5.648602   1.000000
   14       -5.576644   1.000000
   15       -5.561660   1.000000
   16       -5.415245   1.000000
   17       -5.221363   1.000000
   18       -5.191214   1.000000
   19       -5.161874   1.000000
   20       -5.078479   1.000000
   21       -4.953581   1.000000
   22       -4.915414   1.000000
   23       -4.674218   1.000000
   24       -4.588279   1.000000
   25       -4.537512   1.000000
   26       -4.465791   1.000000
   27       -4.454380   1.000000
   28       -4.403071   1.000000
   29       -4.201013   1.000000
   30       -4.157247   1.000000
   31       -4.098404   1.000000
   32       -4.034244   1.000000
   33       -3.861609   1.000000
   34       -3.789662   1.000000
   35       -3.773093   1.000000
   36       -3.728150   1.000000
   37       -3.621620   1.000000
   38       -3.542297   1.000000
   39       -3.540434   1.000000
   40       -3.412775   1.000000
   41       -3.343426   1.000000
   42       -3.253134   1.000000
   43       -3.177506   1.000000
   44       -3.153697   1.000000
   45       -2.979524   1.000000
   46       -2.963065   1.000000
   47       -2.938879   1.000000
   48       -2.928431   1.000000
   49       -2.871433   1.000000
   50       -2.830909   1.000000
   51       -2.819324   1.000000
   52       -2.704547   1.000000
   53       -2.648890   1.000000
   54       -2.609785   1.000000
   55       -2.605833   1.000000
   56       -2.511590   1.000000
   57       -2.402236   1.000000
   58       -2.391498   1.000000
   59       -2.280902   1.000000
   60       -2.224305   1.000000
   61       -2.184391   1.000000
   62       -2.138861   1.000000
   63       -2.080622   1.000000
   64       -1.915937   1.000000
   65       -1.762016   1.000000
   66       -1.716036   1.000000
   67       -1.654274   1.000000
   68       -1.611926   1.000000
   69       -1.500942   1.000000
   70       -1.450681   1.000000
   71       -1.429859   1.000000
   72       -1.422084   1.000000
   73       -1.295529   1.000000
   74       -1.276437   1.000000
   75       -1.209330   1.000000
   76       -1.171998   1.000000
   77       -1.104107   1.000000
   78       -1.002980   1.000000
   79       -0.832954   1.000012
   80       -0.693278   1.000575
   81       -0.584781   1.005546
   82       -0.561824   1.008161
   83       -0.406976   1.035453
   84       -0.222037   0.737768
   85       -0.211339   0.697663
   86       -0.195404   0.634713
   87       -0.119899   0.321827
   88        0.069406  -0.034810
   89        0.111138  -0.032771
   90        0.238510  -0.007788
   91        1.033693  -0.000000
   92        1.607926  -0.000000
   93        1.661244  -0.000000
   94        1.872916  -0.000000
   95        1.951906  -0.000000
   96        2.307955  -0.000000
   97        2.807025  -0.000000
   98        2.813528  -0.000000
   99        3.308941  -0.000000
  100        4.061653  -0.000000
  101        4.146514  -0.000000
  102        4.766458  -0.000000
  103        5.405574   0.000000
  104        5.954753   0.000000
 
  0.0000000E+00  0.2000000E+00  0.0000000E+00  0.8000000E-01
    1      -22.398417   1.000000
    2      -10.777553   1.000000
    3       -8.798237   1.000000
    4       -7.528770   1.000000
    5       -6.878400   1.000000
    6       -6.723173   1.000000
    7       -6.606973   1.000000
    8       -6.475210   1.000000
    9       -6.399915   1.000000
   10       -6.272038   1.000000
   11       -6.196650   1.000000
   12       -6.136796   1.000000
   13       -6.102561   1.000000
   14       -6.062327   1.000000
   15       -5.953273   1.000000
   16       -5.732875   1.000000
   17       -5.680056   1.000000
   18       -5.668807   1.000000
   19       -5.561860   1.000000
   20       -5.412269   1.000000
   21       -5.408004   1.000000
   22       -5.275897   1.000000
   23       -5.209841   1.000000
   24       -4.930048   1.000000
   25       -4.710161   1.000000
   26       -4.687991   1.000000
   27       -4.602818   1.000000
   28       -3.982783   1.000000
   29       -3.950215   1.000000
   30       -3.887235   1.000000
   31       -3.800674   1.000000
   32       -3.752119   1.000000
   33       -3.706612   1.000000
   34       -3.603961   1.000000
   35       -3.585540   1.000000
   36       -3.486387   1.000000
   37       -3.345916   1.000000
   38       -3.328374   1.000000
   39       -3.288694   1.000000
   40       -3.260851   1.000000
   41       -3.194976   1.000000
   42       -3.152206   1.000000
   43       -3.129164   1.000000
   44       -3.069974   1.000000
   45       -3.057593   1.000000
   46       -2.994500   1.000000
   47       -2.944865   1.000000
   48       -2.864707   1.000000
   49       -2.808528   1.000000
   50       -2.805655   1.000000
   51       -2.674433   1.000000
   52       -2.650245   1.000000
   53       -2.338643   1.000000
   54       -2.250336   1.000000
   55       -2.060180   1.000000
   56       -1.994678   1.000000
   57       -1.880570   1.000000
   58       -1.842719   1.000000
   59       -1.655300   1.000000
   60       -1.611041   1.000000
   61       -1.495012   1.000000
   62       -1.474517   1.000000
   63       -1.375419   1.000000
   64       -1.344114   1.000000
   65       -1.311804   1.000000
   66       -1.240713   1.000000
   67       -1.235475   1.000000
   68       -1.149433   1.000000
   69       -1.020702   1.000000
   70       -0.845622   1.000008
   71       -0.824211   1.000015
   72       -0.701840   1.000467
   73       -0.661875   1.001190
   74       -0.601767   1.004076
   75       -0.558725   1.008575
   76       -0.521281   1.014784
   77       -0.513252   1.016395
   78       -0.444016   1.031604
   79       -0.436049   1.032980
   80       -0.406129   1.035443
   81       -0.276334   0.904244
   82       -0.220729   0.732970
   83       -0.207503   0.682829
   84       -0.192316   0.622156
   85       -0.140258   0.404022
   86       -0.008772   0.017561
   87        0.014733  -0.009480
   88        0.054798  -0.032096
   89        0.095074  -0.034842
   90        0.173687  -0.019252
   91        0.905435  -0.000000
   92        1.272702  -0.000000
   93        1.381236  -0.000000
   94        1.616804  -0.000000
   95        1.854178  -0.000000
   96        1.914964  -0.000000
   97        2.464142  -0.000000
   98        2.509111  -0.000000
   99        3.102156  -0.000000
  100        3.575085  -0.000000
  101        3.857850  -0.000000
  102        4.232419  -0.000000
  103        4.420136  -0.000000
  104        5.289304  -0.000000
 
  0.2000000E+00  0.2000000E+00  0.0000000E+00  0.8000000E-01
    1      -22.398417   1.000000
    2      -10.777558   1.000000
    3       -8.798237   1.000000
    4       -7.528771   1.000000
    5       -6.878406   1.000000
    6       -6.723209   1.000000
    7       -6.606895   1.000000
    8       -6.475214   1.000000
    9       -6.399945   1.000000
   10       -6.272023   1.000000
   11       -6.196641   1.000000
   12       -6.136813   1.000000
   13       -6.102556   1.000000
   14       -6.062333   1.000000
   15       -5.953261   1.000000
   16       -5.732884   1.000000
   17       -5.680007   1.000000
   18       -5.668828   1.000000
   19       -5.561870   1.000000
   20       -5.412225   1.000000
   21       -5.408033   1.000000
   22       -5.275902   1.000000
   23       -5.209854   1.000000
   24       -4.930072   1.000000
   25       -4.710151   1.000000
   26       -4.687981   1.000000
   27       -4.602833   1.000000
   28       -3.982708   1.000000
   29       -3.950158   1.000000
   30       -3.887276   1.000000
   31       -3.800629   1.000000
   32       -3.752207   1.000000
   33       -3.706603   1.000000
   34       -3.603983   1.000000
   35       -3.585532   1.000000
   36       -3.486401   1.000000
   37       -3.345892   1.000000
   38       -3.328418   1.000000
   39       -3.288700   1.000000
   40       -3.260883   1.000000
   41       -3.194962   1.000000
   42       -3.152231   1.000000
   43       -3.129115   1.000000
   44       -3.069958   1.000000
   45       -3.057637   1.000000
   46       -2.994474   1.000000
   47       -2.944822   1.000000
   48       -2.864716   1.000000
   49       -2.808524   1.000000
   50       -2.805670   1.000000
   51       -2.674344   1.000000
   52       -2.650297   1.000000
   53       -2.338735   1.000000
   54       -2.250356   1.000000
   55       -2.060158   1.000000
   56       -1.994654   1.000000
   57       -1.880536   1.000000
   58       -1.842730   1.000000
   59       -1.655301   1.000000
   60       -1.611024   1.000000
   61       -1.494953   1.000000
   62       -1.474508   1.000000
   63       -1.375399   1.000000
   64       -1.344101   1.000000
   65       -1.311856   1.000000
   66       -1.240692   1.000000
   67       -1.235449   1.000000
   68       -1.149491   1.000000
   69       -1.020734   1.000000
   70       -0.845690   1.000008
   71       -0.824163   1.000015
   72       -0.701908   1.000466
   73       -0.661839   1.001191
   74       -0.601795   1.004074
   75       -0.558628   1.008589
   76       -0.521314   1.014778
   77       -0.513275   1.016390
   78       -0.444017   1.031604
   79       -0.436060   1.032979
   80       -0.406103   1.035443
   81       -0.276292   0.904142
   82       -0.220854   0.733430
   83       -0.207461   0.682666
   84       -0.192306   0.622113
   85       -0.140300   0.404199
   86       -0.008756   0.017540
   87        0.014721  -0.009469
   88        0.054863  -0.032114
   89        0.095065  -0.034843
   90        0.173652  -0.019259
   91        0.905323  -0.000000
   92        1.272761  -0.000000
   93        1.381216  -0.000000
   94        1.616791  -0.000000
   95        1.854204  -0.000000
   96        1.914980  -0.000000
   97        2.464108  -0.000000
   98        2.509265  -0.000000
   99        3.102175  -0.000000
  100        3.575138  -0.000000
  101        3.857689  -0.000000
  102        4.232366  -0.000000
  103        4.420077  -0.000000
  104        5.279536  -0.000000
 
  0.4000000E+00  0.2000000E+00  0.0000000E+00  0.8000000E-01
    1      -22.397607   1.000000
    2      -10.646295   1.000000
    3       -8.211314   1.000000
    4       -7.106185   1.000000
    5       -6.689459   1.000000
    6       -6.653906   1.000000
    7       -6.479039   1.000000
    8       -6.307341   1.000000
    9       -6.277173   1.000000
   10       -5.944001   1.000000
   11       -5.907758   1.000000
   12       -5.877323   1.000000
   13       -5.723439   1.000000
   14       -5.644050   1.000000
   15       -5.620376   1.000000
   16       -5.472726   1.000000
   17       -5.419974   1.000000
   18       -5.306574   1.000000
   19       -5.254912   1.000000
   20       -5.204554   1.000000
   21       -5.048919   1.000000
   22       -4.963945   1.000000
   23       -4.776509   1.000000
   24       -4.720958   1.000000
   25       -4.593907   1.000000
   26       -4.528927   1.000000
   27       -4.500187   1.000000
   28       -4.299654   1.000000
   29       -4.223338   1.000000
   30       -4.134800   1.000000
   31       -4.020981   1.000000
   32       -3.934172   1.000000
   33       -3.872475   1.000000
   34       -3.696540   1.000000
   35       -3.660381   1.000000
   36       -3.629161   1.000000
   37       -3.556363   1.000000
   38       -3.439913   1.000000
   39       -3.389947   1.000000
   40       -3.362458   1.000000
   41       -3.348224   1.000000
   42       -3.273556   1.000000
   43       -3.215378   1.000000
   44       -3.156401   1.000000
   45       -3.135906   1.000000
   46       -3.062466   1.000000
   47       -2.972942   1.000000
   48       -2.902207   1.000000
   49       -2.832278   1.000000
   50       -2.801523   1.000000
   51       -2.769822   1.000000
   52       -2.577389   1.000000
   53       -2.560136   1.000000
   54       -2.474093   1.000000
   55       -2.396323   1.000000
   56       -2.345175   1.000000
   57       -2.322031   1.000000
   58       -2.301700   1.000000
   59       -2.161738   1.000000
   60       -2.120003   1.000000
   61       -2.077592   1.000000
   62       -2.068743   1.000000
   63       -2.036369   1.000000
   64       -1.945195   1.000000
   65       -1.705489   1.000000
   66       -1.629323   1.000000
   67       -1.521968   1.000000
   68       -1.470860   1.000000
   69       -1.422927   1.000000
   70       -1.365116   1.000000
   71       -1.197727   1.000000
   72       -1.162223   1.000000
   73       -1.132828   1.000000
   74       -1.084123   1.000000
   75       -1.030404   1.000000
   76       -0.835760   1.000011
   77       -0.643850   1.001761
   78       -0.604334   1.003885
   79       -0.527430   1.013614
   80       -0.486429   1.022299
   81       -0.476960   1.024488
   82       -0.409990   1.035444
   83       -0.372035   1.029162
   84       -0.307079   0.966619
   85       -0.182436   0.581377
   86       -0.172373   0.539173
   87       -0.079356   0.177734
   88       -0.044185   0.082424
   89        0.008221  -0.003150
   90        0.157341  -0.022963
   91        0.193441  -0.015104
   92        0.810156  -0.000000
   93        1.027888  -0.000000
   94        1.206935  -0.000000
   95        2.433583  -0.000000
   96        2.820538  -0.000000
   97        2.860271  -0.000000
   98        3.435035  -0.000000
   99        3.540895  -0.000000
  100        3.745031  -0.000000
  101        4.002933  -0.000000
  102        4.661321  -0.000000
  103        4.679045  -0.000000
  104        5.483467   0.000000
 
 -0.4000000E+00  0.2000000E+00  0.0000000E+00  0.8000000E-01
    1      -22.397339   1.000000
    2      -10.563406   1.000000
    3       -7.310830   1.000000
    4       -7.179469   1.000000
    5       -6.747638   1.000000
    6       -6.637527   1.000000
    7       -6.413692   1.000000
    8       -6.194832   1.000000
    9       -6.117585   1.000000
   10       -5.956710   1.000000
   11       -5.598885   1.000000
   12       -5.410526   1.000000
   13       -5.323286   1.000000
   14       -5.297764   1.000000
   15       -5.216517   1.000000
   16       -5.148022   1.000000
   17       -5.063208   1.000000
   18       -5.006628   1.000000
   19       -4.964839   1.000000
   20       -4.780055   1.000000
   21       -4.771295   1.000000
   22       -4.749796   1.000000
   23       -4.705279   1.000000
   24       -4.613832   1.000000
   25       -4.567728   1.000000
   26       -4.418110   1.000000
   27       -4.394652   1.000000
   28       -4.362710   1.000000
   29       -4.354677   1.000000
   30       -4.300825   1.000000
   31       -4.237761   1.000000
   32       -4.203417   1.000000
   33       -4.152596   1.000000
   34       -3.992954   1.000000
   35       -3.822739   1.000000
   36       -3.792106   1.000000
   37       -3.730693   1.000000
   38       -3.716940   1.000000
   39       -3.650440   1.000000
   40       -3.602385   1.000000
   41       -3.564857   1.000000
   42       -3.521401   1.000000
   43       -3.504835   1.000000
   44       -3.475470   1.000000
   45       -3.396390   1.000000
   46       -3.225410   1.000000
   47       -3.104133   1.000000
   48       -3.090600   1.000000
   49       -2.962638   1.000000
   50       -2.941536   1.000000
   51       -2.880799   1.000000
   52       -2.814666   1.000000
   53       -2.792350   1.000000
   54       -2.783220   1.000000
   55       -2.625610   1.000000
   56       -2.547712   1.000000
   57       -2.313718   1.000000
   58       -2.288461   1.000000
   59       -2.233320   1.000000
   60       -2.186509   1.000000
   61       -2.152538   1.000000
   62       -2.066197   1.000000
   63       -2.027026   1.000000
   64       -1.898648   1.000000
   65       -1.841578   1.000000
   66       -1.772945   1.000000
   67       -1.690026   1.000000
   68       -1.621219   1.000000
   69       -1.574151   1.000000
   70       -1.405867   1.000000
   71       -1.354754   1.000000
   72       -1.348258   1.000000
   73       -1.280204   1.000000
   74       -1.219950   1.000000
   75       -1.170298   1.000000
   76       -1.080011   1.000000
   77       -0.998527   1.000000
   78       -0.903945   1.000001
   79       -0.858571   1.000005
   80       -0.796375   1.000036
   81       -0.694467   1.000559
   82       -0.554535   1.009159
   83       -0.480926   1.023570
   84       -0.430426   1.033809
   85       -0.403239   1.035366
   86       -0.337205   1.005951
   87       -0.214355   0.709163
   88       -0.166737   0.515368
   89        0.027745  -0.019704
   90        0.205472  -0.012838
   91        0.231800  -0.008673
   92        0.310739  -0.002036
   93        1.108715  -0.000000
   94        1.749493  -0.000000
   95        2.012267  -0.000000
   96        2.794997  -0.000000
   97        3.167891  -0.000000
   98        3.515700  -0.000000
   99        3.721885  -0.000000
  100        4.383976  -0.000000
  101        4.624566  -0.000000
  102        5.089479  -0.000000
  103        5.334415   0.000000
  104        5.485596   0.000000
 
 -0.2000000E+00  0.2000000E+00  0.0000000E+00  0.8000000E-01
    1      -22.397607   1.000000
    2      -10.646286   1.000000
    3       -8.211315   1.000000
    4       -7.106168   1.000000
    5       -6.689471   1.000000
    6       -6.653911   1.000000
    7       -6.479064   1.000000
    8       -6.307364   1.000000
    9       -6.277159   1.000000
   10       -5.944018   1.000000
   11       -5.907761   1.000000
   12       -5.877298   1.000000
   13       -5.723431   1.000000
   14       -5.644038   1.000000
   15       -5.620383   1.000000
   16       -5.472759   1.000000
   17       -5.419992   1.000000
   18       -5.306558   1.000000
   19       -5.254878   1.000000
   20       -5.204563   1.000000
   21       -5.048968   1.000000
   22       -4.963932   1.000000
   23       -4.776483   1.000000
   24       -4.720928   1.000000
   25       -4.593940   1.000000
   26       -4.528915   1.000000
   27       -4.500213   1.000000
   28       -4.299732   1.000000
   29       -4.223279   1.000000
   30       -4.134822   1.000000
   31       -4.020973   1.000000
   32       -3.934206   1.000000
   33       -3.872473   1.000000
   34       -3.696602   1.000000
   35       -3.660277   1.000000
   36       -3.629132   1.000000
   37       -3.556402   1.000000
   38       -3.439925   1.000000
   39       -3.389958   1.000000
   40       -3.362453   1.000000
   41       -3.348207   1.000000
   42       -3.273577   1.000000
   43       -3.215303   1.000000
   44       -3.156492   1.000000
   45       -3.135924   1.000000
   46       -3.062493   1.000000
   47       -2.972983   1.000000
   48       -2.902251   1.000000
   49       -2.832240   1.000000
   50       -2.801460   1.000000
   51       -2.769792   1.000000
   52       -2.577359   1.000000
   53       -2.560164   1.000000
   54       -2.474130   1.000000
   55       -2.396298   1.000000
   56       -2.345197   1.000000
   57       -2.321938   1.000000
   58       -2.301721   1.000000
   59       -2.161767   1.000000
   60       -2.119956   1.000000
   61       -2.077491   1.000000
   62       -2.068751   1.000000
   63       -2.036434   1.000000
   64       -1.945210   1.000000
   65       -1.705519   1.000000
   66       -1.629349   1.000000
   67       -1.521894   1.000000
   68       -1.470864   1.000000
   69       -1.422904   1.000000
   70       -1.365092   1.000000
   71       -1.197677   1.000000
   72       -1.162276   1.000000
   73       -1.132705   1.000000
   74       -1.084145   1.000000
   75       -1.030484   1.000000
   76       -0.835784   1.000011
   77       -0.643884   1.001760
   78       -0.604266   1.003890
   79       -0.527441   1.013612
   80       -0.486408   1.022304
   81       -0.476961   1.024488
   82       -0.409845   1.035446
   83       -0.372151   1.029207
   84       -0.307115   0.966678
   85       -0.182377   0.581130
   86       -0.172432   0.539418
   87       -0.079323   0.177632
   88       -0.044136   0.082313
   89        0.008221  -0.003150
   90        0.157351  -0.022961
   91        0.193406  -0.015111
   92        0.810139  -0.000000
   93        1.027884  -0.000000
   94        1.206941  -0.000000
   95        2.433521  -0.000000
   96        2.820626  -0.000000
   97        2.860282  -0.000000
   98        3.434971  -0.000000
   99        3.540757  -0.000000
  100        3.744905  -0.000000
  101        4.002799  -0.000000
  102        4.661415  -0.000000
  103        4.679313  -0.000000
  104        5.483526   0.000000
 
  0.0000000E+00  0.4000000E+00  0.0000000E+00  0.8000000E-01
    1      -22.397679   1.000000
    2      -10.614583   1.000000
    3       -7.956737   1.000000
    4       -7.074534   1.000000
    5       -6.901050   1.000000
    6       -6.626967   1.000000
    7       -6.461126   1.000000
    8       -6.383887   1.000000
    9       -6.075284   1.000000
   10       -5.783350   1.000000
   11       -5.711373   1.000000
   12       -5.689789   1.000000
   13       -5.648636   1.000000
   14       -5.576662   1.000000
   15       -5.561720   1.000000
   16       -5.415296   1.000000
   17       -5.221373   1.000000
   18       -5.191211   1.000000
   19       -5.161862   1.000000
   20       -5.078489   1.000000
   21       -4.953578   1.000000
   22       -4.915432   1.000000
   23       -4.674178   1.000000
   24       -4.588223   1.000000
   25       -4.537497   1.000000
   26       -4.465806   1.000000
   27       -4.454457   1.000000
   28       -4.403088   1.000000
   29       -4.201069   1.000000
   30       -4.157225   1.000000
   31       -4.098364   1.000000
   32       -4.034254   1.000000
   33       -3.861562   1.000000
   34       -3.789693   1.000000
   35       -3.773120   1.000000
   36       -3.728174   1.000000
   37       -3.621641   1.000000
   38       -3.542316   1.000000
   39       -3.540388   1.000000
   40       -3.412713   1.000000
   41       -3.343396   1.000000
   42       -3.253172   1.000000
   43       -3.177549   1.000000
   44       -3.153699   1.000000
   45       -2.979373   1.000000
   46       -2.963036   1.000000
   47       -2.938853   1.000000
   48       -2.928439   1.000000
   49       -2.871599   1.000000
   50       -2.830926   1.000000
   51       -2.819318   1.000000
   52       -2.704535   1.000000
   53       -2.648898   1.000000
   54       -2.609792   1.000000