/home/zulissi/software/vasp/5.4.4_impi_cuda_patch0518_intel0818/bin/:/home/zulissi/software/vasp/5.4.4_impi_cuda_patch0518_intel0818/bin:/usr/local/cuda-9.0/samples-bin:/usr/local/cuda-9.0/bin:/opt/ohpc/pub/intel/intel18/compilers_and_libraries_2018.3.222/linux/mpi/intel64/bin_ohpc:/opt/ohpc/pub/intel/intel18/compilers_and_libraries_2018.3.222/linux/mpi/intel64/bin:/opt/ohpc/pub/intel/intel18/compilers_and_libraries_2018.3.222/linux/bin/intel64:/home/zulissi/GASpy_conda/bin:/opt/ohpc/pub/python/anaconda2/bin:/usr/lib64/qt-3.3/bin:/usr/local/bin:/usr/bin:/usr/local/sbin:/usr/sbin:/home/katsuyut/.local/bin:/home/katsuyut/bin:/home/katsuyut/.local/bin:/home/katsuyut/bin
/tmp
./run_vasp.py
/home/katsuyut/5.4.4
 running on   16 total cores
 distrk:  each k-point on   16 cores,    1 groups
 distr:  one band on    4 cores,    4 groups
 using from now: INCAR     
 vasp.5.4.4.18Apr17-6-g9f103f2a35 (build Aug 07 2018 15:16:41) complex          
  
 POSCAR found :  3 types and      18 ions
 scaLAPACK will be used

 ----------------------------------------------------------------------------- 
|                                                                             |
|  ADVICE TO THIS USER RUNNING 'VASP/VAMP'   (HEAR YOUR MASTER'S VOICE ...):  |
|                                                                             |
|      You enforced a specific xc-type in the INCAR file,                     |
|      a different type was found on the POTCAR file                          |
|          I HOPE YOU KNOW, WHAT YOU ARE  DOING                               |
|                                                                             |
 ----------------------------------------------------------------------------- 

 LDA part: xc-table for Pade appr. of Perdew
 POSCAR, INCAR and KPOINTS ok, starting setup
 FFT: planning ...
 WAVECAR not read
 entering main loop
       N       E                     dE             d eps       ncg     rms          rms(c)
DAV:   1     0.101646102546E+04    0.10165E+04   -0.60800E+04  2728   0.102E+03
DAV:   2    -0.226265355502E+02   -0.10391E+04   -0.96543E+03  3352   0.249E+02
DAV:   3    -0.103094822105E+03   -0.80468E+02   -0.74270E+02  3128   0.671E+01
DAV:   4    -0.106197317791E+03   -0.31025E+01   -0.30069E+01  3512   0.129E+01
DAV:   5    -0.106278545768E+03   -0.81228E-01   -0.81026E-01  3424   0.209E+00    0.401E+01
DAV:   6    -0.101509999414E+03    0.47685E+01   -0.28901E+01  3712   0.239E+01    0.294E+01
DAV:   7    -0.113057484184E+03   -0.11547E+02   -0.39596E+01  3184   0.408E+01    0.331E+01
DAV:   8    -0.101306407938E+03    0.11751E+02   -0.31511E+01  2992   0.336E+01    0.168E+01
DAV:   9    -0.122769658248E+03   -0.21463E+02   -0.60562E+01  3672   0.436E+01    0.373E+01
DAV:  10    -0.100275199624E+03    0.22494E+02   -0.42932E+01  3480   0.261E+01    0.126E+01
DAV:  11    -0.993194416167E+02    0.95576E+00   -0.63988E+00  2976   0.109E+01    0.745E+00
DAV:  12    -0.989192413132E+02    0.40020E+00   -0.12948E+00  3112   0.491E+00    0.448E+00
DAV:  13    -0.987975510559E+02    0.12169E+00   -0.41131E-01  3136   0.254E+00    0.197E+00
DAV:  14    -0.988013465525E+02   -0.37955E-02   -0.19468E-01  3016   0.182E+00    0.225E+00
DAV:  15    -0.987901508613E+02    0.11196E-01   -0.49863E-02  3072   0.103E+00    0.154E+00
DAV:  16    -0.987814495861E+02    0.87013E-02   -0.60457E-02  3008   0.110E+00    0.127E+00
DAV:  17    -0.987743897179E+02    0.70599E-02   -0.27940E-02  3048   0.728E-01    0.480E-01
DAV:  18    -0.987735531405E+02    0.83658E-03   -0.32752E-03  3024   0.258E-01    0.352E-01
DAV:  19    -0.987728029014E+02    0.75024E-03   -0.35863E-03  2968   0.243E-01    0.200E-01
DAV:  20    -0.987726316608E+02    0.17124E-03   -0.64292E-04  2696   0.124E-01    0.668E-02
DAV:  21    -0.987727030066E+02   -0.71346E-04   -0.19638E-04  1760   0.584E-02
   1 F= -.98772703E+02 E0= -.98766678E+02  d E =-.180741E-01
Pt_111_u2_no20_CO_n1_d9.traj, -98.76667832
