 vasp.5.4.4.18Apr17-6-g9f103f2a35 (build Aug 07 2018 15:16:41) complex          
  
 executed on             LinuxIFC date 2019.10.18  01:18:29
 running on   16 total cores
 distrk:  each k-point on   16 cores,    1 groups
 distr:  one band on NCORES_PER_BAND=   4 cores,    4 groups


--------------------------------------------------------------------------------------------------------


 INCAR:
 POTCAR:    PAW_PBE Pt 04Feb2005                  
 POTCAR:    PAW_PBE C 08Apr2002                   
 POTCAR:    PAW_PBE O 08Apr2002                   
 POTCAR:    PAW_PBE Pt 04Feb2005                  
   VRHFIN =Pt: s1d9                                                             
   LEXCH  = PE                                                                  
   EATOM  =   729.1176 eV,   53.5886 Ry                                         
                                                                                
   TITEL  = PAW_PBE Pt 04Feb2005                                                
   LULTRA =        F    use ultrasoft PP ?                                      
   IUNSCR =        1    unscreen: 0-lin 1-nonlin 2-no                           
   RPACOR =    2.330    partial core radius                                     
   POMASS =  195.080; ZVAL   =   10.000    mass and valenz                      
   RCORE  =    2.600    outmost cutoff radius                                   
   RWIGS  =    2.750; RWIGS  =    1.455    wigner-seitz radius (au A)           
   ENMAX  =  230.283; ENMIN  =  172.712 eV                                      
   ICORE  =        3    local potential                                         
   LCOR   =        T    correct aug charges                                     
   LPAW   =        T    paw PP                                                  
   EAUG   =  358.966                                                            
   DEXC   =    0.000                                                            
   RMAX   =    2.658    core radius for proj-oper                               
   RAUG   =    1.300    factor for augmentation sphere                          
   RDEP   =    2.761    radius for radial grids                                 
   RDEPT  =    2.203    core radius for aug-charge                              
                                                                                
   Atomic configuration                                                         
   16 entries                                                                   
     n  l   j            E        occ.                                          
     1  0  0.50    -78401.1885   2.0000                                         
     2  0  0.50    -13770.7750   2.0000                                         
     2  1  1.50    -11931.0468   6.0000                                         
     3  0  0.50     -3234.7234   2.0000                                         
     3  1  1.50     -2699.2216   6.0000                                         
     3  2  2.50     -2119.5714  10.0000                                         
     4  0  0.50      -695.1528   2.0000                                         
     4  1  1.50      -519.6034   6.0000                                         
     4  2  2.50      -306.6786  10.0000                                         
     4  3  3.50       -70.1041  14.0000                                         
     5  0  0.50      -101.7747   2.0000                                         
     5  1  1.50       -55.9873   6.0000                                         
     5  2  2.50        -6.1423   9.0000                                         
     6  0  0.50        -5.6573   1.0000                                         
     6  1  1.50        -6.8029   0.0000                                         
     5  3  2.50        -1.3606   0.0000                                         
   Description                                                                  
     l       E           TYP  RCUT    TYP  RCUT                                 
     2     -6.1423404     23  2.500                                             
     2     -7.5029230     23  2.500                                             
     0     -5.6573207     23  2.500                                             
     0      0.7416693     23  2.500                                             
     1     -2.7211652     23  2.600                                             
     1     20.4087390     23  2.600                                             
     3     -1.3605826     23  2.500                                             
  local pseudopotential read in
  partial core-charges read in
  partial kinetic energy density read in
  atomic valenz-charges read in
  non local Contribution for L=           2  read in
    real space projection operators read in
  non local Contribution for L=           2  read in
    real space projection operators read in
  non local Contribution for L=           0  read in
    real space projection operators read in
  non local Contribution for L=           0  read in
    real space projection operators read in
  non local Contribution for L=           1  read in
    real space projection operators read in
  non local Contribution for L=           1  read in
    real space projection operators read in
    PAW grid and wavefunctions read in
 
   number of l-projection  operators is LMAX  =           6
   number of lm-projection operators is LMMAX =          18
 
 POTCAR:    PAW_PBE C 08Apr2002                   
   VRHFIN =C: s2p2                                                              
   LEXCH  = PE                                                                  
   EATOM  =   147.1560 eV,   10.8157 Ry                                         
                                                                                
   TITEL  = PAW_PBE C 08Apr2002                                                 
   LULTRA =        F    use ultrasoft PP ?                                      
   IUNSCR =        1    unscreen: 0-lin 1-nonlin 2-no                           
   RPACOR =    1.200    partial core radius                                     
   POMASS =   12.011; ZVAL   =    4.000    mass and valenz                      
   RCORE  =    1.500    outmost cutoff radius                                   
   RWIGS  =    1.630; RWIGS  =    0.863    wigner-seitz radius (au A)           
   ENMAX  =  400.000; ENMIN  =  300.000 eV                                      
   ICORE  =        2    local potential                                         
   LCOR   =        T    correct aug charges                                     
   LPAW   =        T    paw PP                                                  
   EAUG   =  644.873                                                            
   DEXC   =    0.000                                                            
   RMAX   =    1.529    core radius for proj-oper                               
   RAUG   =    1.300    factor for augmentation sphere                          
   RDEP   =    1.501    radius for radial grids                                 
   RDEPT  =    1.300    core radius for aug-charge                              
                                                                                
   Atomic configuration                                                         
    4 entries                                                                   
     n  l   j            E        occ.                                          
     1  0  0.50      -273.3789   2.0000                                         
     2  0  0.50       -13.7508   2.0000                                         
     2  1  0.50        -5.2854   2.0000                                         
     3  2  1.50        -5.4423   0.0000                                         
   Description                                                                  
     l       E           TYP  RCUT    TYP  RCUT                                 
     0    -13.7508458     23  1.200                                             
     0     -8.2022199     23  1.200                                             
     1     -5.2854383     23  1.500                                             
     1     34.0145650     23  1.500                                             
     2     -5.4423304      7  1.500                                             
  local pseudopotential read in
  partial core-charges read in
  partial kinetic energy density read in
  atomic valenz-charges read in
  non local Contribution for L=           0  read in
    real space projection operators read in
  non local Contribution for L=           0  read in
    real space projection operators read in
  non local Contribution for L=           1  read in
    real space projection operators read in
  non local Contribution for L=           1  read in
    real space projection operators read in
    PAW grid and wavefunctions read in
 
   number of l-projection  operators is LMAX  =           4
   number of lm-projection operators is LMMAX =           8
 
 POTCAR:    PAW_PBE O 08Apr2002                   
   VRHFIN =O: s2p4                                                              
   LEXCH  = PE                                                                  
   EATOM  =   432.3788 eV,   31.7789 Ry                                         
                                                                                
   TITEL  = PAW_PBE O 08Apr2002                                                 
   LULTRA =        F    use ultrasoft PP ?                                      
   IUNSCR =        1    unscreen: 0-lin 1-nonlin 2-no                           
   RPACOR =    1.200    partial core radius                                     
   POMASS =   16.000; ZVAL   =    6.000    mass and valenz                      
   RCORE  =    1.520    outmost cutoff radius                                   
   RWIGS  =    1.550; RWIGS  =    0.820    wigner-seitz radius (au A)           
   ENMAX  =  400.000; ENMIN  =  300.000 eV                                      
   ICORE  =        2    local potential                                         
   LCOR   =        T    correct aug charges                                     
   LPAW   =        T    paw PP                                                  
   EAUG   =  605.392                                                            
   DEXC   =    0.000                                                            
   RMAX   =    1.553    core radius for proj-oper                               
   RAUG   =    1.300    factor for augmentation sphere                          
   RDEP   =    1.550    radius for radial grids                                 
   RDEPT  =    1.329    core radius for aug-charge                              
                                                                                
   Atomic configuration                                                         
    4 entries                                                                   
     n  l   j            E        occ.                                          
     1  0  0.50      -514.6923   2.0000                                         
     2  0  0.50       -23.9615   2.0000                                         
     2  1  0.50        -9.0305   4.0000                                         
     3  2  1.50        -9.5241   0.0000                                         
   Description                                                                  
     l       E           TYP  RCUT    TYP  RCUT                                 
     0    -23.9615318     23  1.200                                             
     0     -9.5240782     23  1.200                                             
     1     -9.0304911     23  1.520                                             
     1      8.1634956     23  1.520                                             
     2     -9.5240782      7  1.500                                             
  local pseudopotential read in
  partial core-charges read in
  partial kinetic energy density read in
  kinetic energy density of atom read in
  atomic valenz-charges read in
  non local Contribution for L=           0  read in
    real space projection operators read in
  non local Contribution for L=           0  read in
    real space projection operators read in
  non local Contribution for L=           1  read in
    real space projection operators read in
  non local Contribution for L=           1  read in
    real space projection operators read in
    PAW grid and wavefunctions read in
 
   number of l-projection  operators is LMAX  =           4
   number of lm-projection operators is LMMAX =           8
 
 Optimization of the real space projectors (new method)

 maximal supplied QI-value         = 14.36
 optimisation between [QCUT,QGAM] = [  9.48, 19.10] = [ 25.16,102.17] Ry 
 Optimized for a Real-space Cutoff    1.57 Angstroem

   l    n(q)    QCUT    max X(q) W(low)/X(q) W(high)/X(q)  e(spline) 
   2      8     9.479    66.195    0.35E-03    0.53E-04    0.87E-07
   2      8     9.479    64.643    0.35E-03    0.57E-04    0.91E-07
   0      9     9.479    95.520    0.50E-04    0.62E-04    0.81E-07
   0      9     9.479    63.403    0.49E-04    0.60E-04    0.78E-07
   1      8     9.479    19.961    0.10E-03    0.87E-04    0.11E-06
   1      8     9.479    13.289    0.88E-04    0.71E-04    0.97E-07
 Optimization of the real space projectors (new method)

 maximal supplied QI-value         = 25.13
 optimisation between [QCUT,QGAM] = [  9.55, 19.10] = [ 25.54,102.17] Ry 
 Optimized for a Real-space Cutoff    1.39 Angstroem

   l    n(q)    QCUT    max X(q) W(low)/X(q) W(high)/X(q)  e(spline) 
   0      8     9.551   115.676    0.39E-03    0.54E-03    0.29E-06
   0      8     9.551    87.132    0.39E-03    0.54E-03    0.28E-06
   1      7     9.551     4.429    0.35E-03    0.51E-04    0.29E-06
   1      7     9.551     2.733    0.22E-03    0.42E-04    0.31E-06
 Optimization of the real space projectors (new method)

 maximal supplied QI-value         = 24.76
 optimisation between [QCUT,QGAM] = [  9.41, 19.06] = [ 24.78,101.75] Ry 
 Optimized for a Real-space Cutoff    1.48 Angstroem

   l    n(q)    QCUT    max X(q) W(low)/X(q) W(high)/X(q)  e(spline) 
   0      8     9.407    20.381    0.17E-03    0.13E-03    0.41E-06
   0      8     9.407    15.268    0.19E-03    0.15E-03    0.42E-06
   1      8     9.407     5.946    0.36E-03    0.29E-03    0.38E-06
   1      8     9.407     5.382    0.31E-03    0.24E-03    0.34E-06

 ----------------------------------------------------------------------------- 
|                                                                             |
|  ADVICE TO THIS USER RUNNING 'VASP/VAMP'   (HEAR YOUR MASTER'S VOICE ...):  |
|                                                                             |
|      You enforced a specific xc-type in the INCAR file,                     |
|      a different type was found on the POTCAR file                          |
|          I HOPE YOU KNOW, WHAT YOU ARE  DOING                               |
|                                                                             |
 ----------------------------------------------------------------------------- 

  PAW_PBE Pt 04Feb2005                  :
 energy of atom  1       EATOM= -729.1176
 kinetic energy error for atom=    0.0144 (will be added to EATOM!!)
  PAW_PBE C 08Apr2002                   :
 energy of atom  2       EATOM= -147.1560
 kinetic energy error for atom=    0.0854 (will be added to EATOM!!)
  PAW_PBE O 08Apr2002                   :
 energy of atom  3       EATOM= -432.3788
 kinetic energy error for atom=    0.3782 (will be added to EATOM!!)
 
 
 POSCAR: Pt  C  O                                
  positions in cartesian coordinates
  No initial velocities read in
 exchange correlation table for  LEXCH =        9
   RHO(1)=    0.500       N(1)  =     2000
   RHO(2)=  100.500       N(2)  =     4000
 


--------------------------------------------------------------------------------------------------------


 ion  position               nearest neighbor table
   1  0.000  0.000  0.372-   5 2.82   6 2.82   7 2.82   3 2.82   3 2.82   4 2.82   4 2.82   2 2.82
                             2 2.82
   2  0.500  0.000  0.372-   6 2.82   5 2.82   8 2.82   4 2.82   3 2.82   4 2.82   3 2.82   1 2.82
                             1 2.82
   3  0.000  0.500  0.372-   7 2.82   5 2.82   8 2.82   1 2.82   1 2.82   2 2.82   2 2.82   4 2.82
                             4 2.82
   4  0.500  0.500  0.372-   8 2.82   7 2.82   6 2.82   2 2.82   1 2.82   2 2.82   1 2.82   3 2.82
                             3 2.82
   5  0.167  0.167  0.457-  10 2.81   1 2.82   3 2.82   2 2.82   7 2.82   7 2.82   8 2.82   8 2.82
                             6 2.82   6 2.82  12 2.83   9 2.83
   6  0.667  0.167  0.457-  10 2.81   2 2.82   4 2.82   1 2.82   8 2.82   7 2.82   8 2.82   7 2.82
                             5 2.82   5 2.82  11 2.83   9 2.83
   7  0.167  0.667  0.457-  10 2.81   3 2.82   4 2.82   1 2.82   5 2.82   5 2.82   6 2.82   6 2.82
                             8 2.82   8 2.82  11 2.83  12 2.83
   8  0.667  0.667  0.457-   9 2.82  12 2.82  11 2.82   4 2.82   2 2.82   3 2.82   6 2.82   5 2.82
                             6 2.82   5 2.82   7 2.82   7 2.82
   9  0.832  0.337  0.543-  13 2.77  12 2.79  11 2.79   8 2.82  10 2.82  10 2.82   5 2.83   6 2.83
                            11 2.85  12 2.85  15 2.90  16 2.90
  10  0.333  0.333  0.542-   7 2.81   6 2.81   5 2.81  12 2.82   9 2.82  11 2.82  11 2.82   9 2.82
                            12 2.82  15 2.93  14 2.93  16 2.93
  11  0.832  0.832  0.543-  13 2.77   9 2.79  12 2.79   8 2.82  10 2.82  10 2.82   7 2.83   6 2.83
                            12 2.85   9 2.85  15 2.90  14 2.90
  12  0.337  0.832  0.543-  13 2.77   9 2.79  11 2.79   8 2.82  10 2.82  10 2.82   5 2.83   7 2.83
                            11 2.85   9 2.85  14 2.90  16 2.90
  13  1.000  1.000  0.626-  11 2.77  12 2.77   9 2.77  14 2.83  15 2.83  16 2.83  16 2.83  15 2.83
                            14 2.83
  14  0.501  0.998  0.632-  17 2.12  15 2.80  16 2.80  13 2.83  13 2.83  16 2.84  15 2.84  12 2.90
                            11 2.90  10 2.93
  15  0.998  0.501  0.632-  17 2.12  14 2.80  16 2.80  13 2.83  13 2.83  16 2.84  14 2.84   9 2.90
                            11 2.90  10 2.93
  16  0.501  0.501  0.632-  17 2.12  14 2.80  15 2.80  13 2.83  13 2.83  15 2.84  14 2.84  12 2.90
                             9 2.90  10 2.93
  17  0.333  0.333  0.682-  18 1.20  15 2.12  14 2.12  16 2.12
  18  0.333  0.333  0.727-  17 1.20
 

IMPORTANT INFORMATION: All symmetrisations will be switched off!
NOSYMM: (Re-)initialisation of all symmetry stuff for point group C_1.

 
 
 KPOINTS: KPOINTS created by Atomic Simulation Env

Automatic generation of k-mesh.
Space group operators:
 irot       det(A)        alpha          n_x          n_y          n_z        tau_x        tau_y        tau_z
    1     1.000000     0.000000     1.000000     0.000000     0.000000     0.000000     0.000000     0.000000
 
 Subroutine IBZKPT returns following result:
 ===========================================
 
 Found     13 irreducible k-points:
 
 Following reciprocal coordinates:
            Coordinates               Weight
  0.000000  0.000000  0.000000      1.000000
  0.200000  0.000000  0.000000      2.000000
  0.400000  0.000000  0.000000      2.000000
  0.000000  0.200000  0.000000      2.000000
  0.200000  0.200000  0.000000      2.000000
  0.400000  0.200000  0.000000      2.000000
 -0.400000  0.200000  0.000000      2.000000
 -0.200000  0.200000  0.000000      2.000000
  0.000000  0.400000  0.000000      2.000000
  0.200000  0.400000  0.000000      2.000000
  0.400000  0.400000  0.000000      2.000000
 -0.400000  0.400000  0.000000      2.000000
 -0.200000  0.400000  0.000000      2.000000
 
 Following cartesian coordinates:
            Coordinates               Weight
  0.000000  0.000000  0.000000      1.000000
  0.035437 -0.020459  0.000000      2.000000
  0.070874 -0.040919  0.000000      2.000000
  0.000000  0.040919  0.000000      2.000000
  0.035437  0.020459  0.000000      2.000000
  0.070874  0.000000  0.000000      2.000000
 -0.070874  0.081838  0.000000      2.000000
 -0.035437  0.061378  0.000000      2.000000
  0.000000  0.081838  0.000000      2.000000
  0.035437  0.061378  0.000000      2.000000
  0.070874  0.040919  0.000000      2.000000
 -0.070874  0.122757  0.000000      2.000000
 -0.035437  0.102297  0.000000      2.000000
 


--------------------------------------------------------------------------------------------------------




 Dimension of arrays:
   k-points           NKPTS =     13   k-points in BZ     NKDIM =     13   number of bands    NBANDS=    104
   number of dos      NEDOS =    301   number of ions     NIONS =     18
   non local maximal  LDIM  =      6   non local SUM 2l+1 LMDIM =     18
   total plane-waves  NPLWV =  98784
   max r-space proj   IRMAX =   2189   max aug-charges    IRDMAX=   8258
   dimension x,y,z NGX =    28 NGY =   28 NGZ =  126
   dimension x,y,z NGXF=    56 NGYF=   56 NGZF=  252
   support grid    NGXF=    56 NGYF=   56 NGZF=  252
   ions per type =              16   1   1
   NGX,Y,Z   is equivalent  to a cutoff of   8.25,  8.25,  7.78 a.u.
   NGXF,Y,Z  is equivalent  to a cutoff of  16.50, 16.50, 15.57 a.u.

 SYSTEM =  unknown system                          
 POSCAR =  Pt  C  O                                

 Startparameter for this run:
   NWRITE =      2    write-flag & timer
   PREC   = normal    normal or accurate (medium, high low for compatibility)
   ISTART =      0    job   : 0-new  1-cont  2-samecut
   ICHARG =      2    charge: 1-file 2-atom 10-const
   ISPIN  =      1    spin polarized calculation?
   LNONCOLLINEAR =      F non collinear calculations
   LSORBIT =      F    spin-orbit coupling
   INIWAV =      1    electr: 0-lowe 1-rand  2-diag
   LASPH  =      F    aspherical Exc in radial PAW
   METAGGA=      F    non-selfconsistent MetaGGA calc.

 Electronic Relaxation 1
   ENCUT  =  350.0 eV  25.72 Ry    5.07 a.u.   8.61  8.61 41.05*2*pi/ulx,y,z
   ENINI  =  350.0     initial cutoff
   ENAUG  =  644.9 eV  augmentation charge cutoff
   NELM   =     60;   NELMIN=  2; NELMDL= -5     # of ELM steps 
   EDIFF  = 0.1E-03   stopping-criterion for ELM
   LREAL  =      T    real-space projection
   NLSPLINE    = F    spline interpolate recip. space projectors
   LCOMPAT=      F    compatible to vasp.4.4
   GGA_COMPAT  = T    GGA compatible to vasp.4.4-vasp.4.6
   LMAXPAW     = -100 max onsite density
   LMAXMIX     =    2 max onsite mixed and CHGCAR
   VOSKOWN=      0    Vosko Wilk Nusair interpolation
   ROPT   =   -0.00050  -0.00050  -0.00050
 Ionic relaxation
   EDIFFG = -.3E-01   stopping-criterion for IOM
   NSW    =      0    number of steps for IOM
   NBLOCK =      1;   KBLOCK =      1    inner block; outer block 
   IBRION =     -1    ionic relax: 0-MD 1-quasi-New 2-CG
   NFREE  =      1    steps in history (QN), initial steepest desc. (CG)
   ISIF   =      0    stress and relaxation
   IWAVPR =     10    prediction:  0-non 1-charg 2-wave 3-comb
   ISYM   =      0    0-nonsym 1-usesym 2-fastsym
   LCORR  =      T    Harris-Foulkes like correction to forces

   POTIM  = 0.5000    time-step for ionic-motion
   TEIN   =    0.0    initial temperature
   TEBEG  =    0.0;   TEEND  =   0.0 temperature during run
   SMASS  =  -3.00    Nose mass-parameter (am)
   estimated Nose-frequenzy (Omega)   =  0.10E-29 period in steps =****** mass=  -0.728E-27a.u.
   SCALEE = 1.0000    scale energy and forces
   NPACO  =    256;   APACO  = 16.0  distance and # of slots for P.C.
   PSTRESS=    0.0 pullay stress

  Mass of Ions in am
   POMASS = 195.08 12.01 16.00
  Ionic Valenz
   ZVAL   =  10.00  4.00  6.00
  Atomic Wigner-Seitz radii
   RWIGS  =   1.50  0.80  0.80
  virtual crystal weights 
   VCA    =   1.00  1.00  1.00
   NELECT =     170.0000    total number of electrons
   NUPDOWN=      -1.0000    fix difference up-down

 DOS related values:
   EMIN   =  10.00;   EMAX   =-10.00  energy-range for DOS
   EFERMI =   0.00
   ISMEAR =     1;   SIGMA  =   0.20  broadening in eV -4-tet -1-fermi 0-gaus

 Electronic relaxation 2 (details)
   IALGO  =     38    algorithm
   LDIAG  =      T    sub-space diagonalisation (order eigenvalues)
   LSUBROT=      F    optimize rotation matrix (better conditioning)
   TURBO    =      0    0=normal 1=particle mesh
   IRESTART =      0    0=no restart 2=restart with 2 vectors
   NREBOOT  =      0    no. of reboots
   NMIN     =      0    reboot dimension
   EREF     =   0.00    reference energy to select bands
   IMIX   =      4    mixing-type and parameters
     AMIX     =   0.40;   BMIX     =  1.00
     AMIX_MAG =   1.60;   BMIX_MAG =  1.00
     AMIN     =   0.10
     WC   =   100.;   INIMIX=   1;  MIXPRE=   1;  MAXMIX= -45

 Intra band minimization:
   WEIMIN = 0.0000     energy-eigenvalue tresh-hold
   EBREAK =  0.24E-06  absolut break condition
   DEPER  =   0.30     relativ break condition  

   TIME   =   0.40     timestep for ELM

  volume/ion in A,a.u.               =      41.24       278.33
  Fermi-wavevector in a.u.,A,eV,Ry     =   1.001569  1.892691 13.648550  1.003140
  Thomas-Fermi vector in A             =   2.133999
 
 Write flags
   LWAVE        =      F    write WAVECAR
   LDOWNSAMPLE  =      F    k-point downsampling of WAVECAR
   LCHARG       =      F    write CHGCAR
   LVTOT        =      F    write LOCPOT, total local potential
   LVHAR        =      F    write LOCPOT, Hartree potential only
   LELF         =      F    write electronic localiz. function (ELF)
   LORBIT       =      0    0 simple, 1 ext, 2 COOP (PROOUT), +10 PAW based schemes


 Dipole corrections
   LMONO  =      F    monopole corrections only (constant potential shift)
   LDIPOL =      F    correct potential (dipole corrections)
   IDIPOL =      0    1-x, 2-y, 3-z, 4-all directions 
   EPSILON=  1.0000000 bulk dielectric constant

 Exchange correlation treatment:
   GGA     =    RP    GGA type
   LEXCH   =     9    internal setting for exchange type
   VOSKOWN=      0    Vosko Wilk Nusair interpolation
   LHFCALC =     F    Hartree Fock is set to
   LHFONE  =     F    Hartree Fock one center treatment
   AEXX    =    0.0000 exact exchange contribution

 Linear response parameters
   LEPSILON=     F    determine dielectric tensor
   LRPA    =     F    only Hartree local field effects (RPA)
   LNABLA  =     F    use nabla operator in PAW spheres
   LVEL    =     F    velocity operator in full k-point grid
   LINTERFAST=   F  fast interpolation
   KINTER  =     0    interpolate to denser k-point grid
   CSHIFT  =0.1000    complex shift for real part using Kramers Kronig
   OMEGAMAX=  -1.0    maximum frequency
   DEG_THRESHOLD= 0.2000000E-02 threshold for treating states as degnerate
   RTIME   =   -0.100 relaxation time in fs
  (WPLASMAI=    0.000 imaginary part of plasma frequency in eV, 0.658/RTIME)
   DFIELD  = 0.0000000 0.0000000 0.0000000 field for delta impulse in time
 
 Orbital magnetization related:
   ORBITALMAG=     F  switch on orbital magnetization
   LCHIMAG   =     F  perturbation theory with respect to B field
   DQ        =  0.001000  dq finite difference perturbation B field
   LLRAUG    =     F  two centre corrections for induced B field



--------------------------------------------------------------------------------------------------------


 Static calculation
 charge density and potential will be updated during run
 non-spin polarized calculation
 Variant of blocked Davidson
 Davidson routine will perform the subspace rotation
 perform sub-space diagonalisation
    after iterative eigenvector-optimisation
 modified Broyden-mixing scheme, WC =      100.0
 initial mixing is a Kerker type mixing with AMIX =  0.4000 and BMIX =      1.0000
 Hartree-type preconditioning will be used
 using additional bands           19
 real space projection scheme for non local part
 use partial core corrections
 calculate Harris-corrections to forces 
   (improved forces if not selfconsistent)
 use gradient corrections 
 use of overlap-Matrix (Vanderbilt PP)
 Methfessel and Paxton  Order N= 1 SIGMA  =   0.20


--------------------------------------------------------------------------------------------------------


  energy-cutoff  :      350.00
  volume of cell :      742.39
      direct lattice vectors                 reciprocal lattice vectors
     5.643844236  0.000000000  0.000000000     0.177184195 -0.102297343  0.000000000
     2.821922118  4.887712483  0.000000000     0.000000000  0.204594686  0.000000000
     0.000000000  0.000000000 26.912269283     0.000000000  0.000000000  0.037157773

  length of vectors
     5.643844236  5.643844236 26.912269283     0.204594686  0.204594686  0.037157773


 
 k-points in units of 2pi/SCALE and weight: KPOINTS created by Atomic Simulation Env
   0.00000000  0.00000000  0.00000000       0.040
   0.03543684 -0.02045947  0.00000000       0.080
   0.07087368 -0.04091894  0.00000000       0.080
   0.00000000  0.04091894  0.00000000       0.080
   0.03543684  0.02045947  0.00000000       0.080
   0.07087368  0.00000000  0.00000000       0.080
  -0.07087368  0.08183787  0.00000000       0.080
  -0.03543684  0.06137841  0.00000000       0.080
   0.00000000  0.08183787  0.00000000       0.080
   0.03543684  0.06137841  0.00000000       0.080
   0.07087368  0.04091894  0.00000000       0.080
  -0.07087368  0.12275681  0.00000000       0.080
  -0.03543684  0.10229734  0.00000000       0.080
 
 k-points in reciprocal lattice and weights: KPOINTS created by Atomic Simulation Env
   0.00000000  0.00000000  0.00000000       0.040
   0.20000000  0.00000000  0.00000000       0.080
   0.40000000  0.00000000  0.00000000       0.080
   0.00000000  0.20000000  0.00000000       0.080
   0.20000000  0.20000000  0.00000000       0.080
   0.40000000  0.20000000  0.00000000       0.080
  -0.40000000  0.20000000  0.00000000       0.080
  -0.20000000  0.20000000  0.00000000       0.080
   0.00000000  0.40000000  0.00000000       0.080
   0.20000000  0.40000000  0.00000000       0.080
   0.40000000  0.40000000  0.00000000       0.080
  -0.40000000  0.40000000  0.00000000       0.080
  -0.20000000  0.40000000  0.00000000       0.080
 
 position of ions in fractional coordinates (direct lattice) 
   0.00000000  0.00000000  0.37157773
   0.50000000  0.00000000  0.37157773
   0.00000000  0.50000000  0.37157773
   0.50000000  0.50000000  0.37157773
   0.16666667  0.16666667  0.45719258
   0.66666667  0.16666667  0.45719258
   0.16666667  0.66666667  0.45719258
   0.66666667  0.66666667  0.45719258
   0.83168056  0.33664283  0.54297819
   0.33333577  0.33333615  0.54234581
   0.83168414  0.83168389  0.54297717
   0.33664250  0.83168054  0.54297816
   0.99999974  0.99999987  0.62572273
   0.50103857  0.99791607  0.63245082
   0.99791601  0.50103868  0.63245086
   0.50103226  0.50103257  0.63245766
   0.33331451  0.33331443  0.68227577
   0.33329167  0.33329138  0.72683238
 
 position of ions in cartesian coordinates  (Angst):
   0.00000000  0.00000000 10.00000000
   2.82192212  0.00000000 10.00000000
   1.41096106  2.44385624 10.00000000
   4.23288318  2.44385624 10.00000000
   1.41096106  0.81461875 12.30408976
   4.23288318  0.81461875 12.30408976
   2.82192212  3.25847499 12.30408976
   5.64384424  3.25847499 12.30408976
   5.64385539  1.64541337 14.61277514
   2.82194383  1.62925124 14.59575653
   7.04084289  4.06503176 14.61274792
   4.24689556  4.06501536 14.61277456
   8.46576451  4.88771187 16.83961868
   5.64382504  4.87752682 17.02068678
   7.04597468  2.44893301 17.02068775
   4.24162295  2.44890315 17.02087096
   2.82176251  1.62914510 18.36158932
   2.82156860  1.62903246 19.56070861
 


--------------------------------------------------------------------------------------------------------


 k-point  1 :   0.0000 0.0000 0.0000  plane waves:   11069
 k-point  2 :   0.2000 0.0000 0.0000  plane waves:   11057
 k-point  3 :   0.4000 0.0000 0.0000  plane waves:   11035
 k-point  4 :   0.0000 0.2000 0.0000  plane waves:   11057
 k-point  5 :   0.2000 0.2000 0.0000  plane waves:   11057
 k-point  6 :   0.4000 0.2000 0.0000  plane waves:   11021
 k-point  7 :  -0.4000 0.2000 0.0000  plane waves:   11028
 k-point  8 :  -0.2000 0.2000 0.0000  plane waves:   11021
 k-point  9 :   0.0000 0.4000 0.0000  plane waves:   11035
 k-point 10 :   0.2000 0.4000 0.0000  plane waves:   11021
 k-point 11 :   0.4000 0.4000 0.0000  plane waves:   11035
 k-point 12 :  -0.4000 0.4000 0.0000  plane waves:   11028
 k-point 13 :  -0.2000 0.4000 0.0000  plane waves:   11028

 maximum and minimum number of plane-waves per node :      2799     2729

 maximum number of plane-waves:     11069
 maximum index in each direction: 
   IXMAX=    9   IYMAX=    8   IZMAX=   41
   IXMIN=   -9   IYMIN=   -9   IZMIN=  -41


 real space projection operators:
  total allocation   :       4890.92 KBytes
  max/ min on nodes  :       1227.64       1217.97


 parallel 3D FFT for wavefunctions:
    minimum data exchange during FFTs selected (reduces bandwidth)
 parallel 3D FFT for charge:
    minimum data exchange during FFTs selected (reduces bandwidth)


 total amount of memory used by VASP MPI-rank0    54955. kBytes
=======================================================================

   base      :      30000. kBytes
   nonlr-proj:       2172. kBytes
   fftplans  :       2593. kBytes
   grid      :       4625. kBytes
   one-center:         77. kBytes
   wavefun   :      15488. kBytes
 
     INWAV:  cpu time    0.0000: real time    0.0000
 Broyden mixing: mesh for mixing (old mesh)
   NGX = 17   NGY = 17   NGZ = 83
  (NGX  = 56   NGY  = 56   NGZ  =252)
  gives a total of  23987 points

 initial charge density was supplied:
 charge density of overlapping atoms calculated
 number of electron     170.0000000 magnetization 
 keeping initial charge density in first step


--------------------------------------------------------------------------------------------------------


 Maximum index for non-local projection operator          527
 Maximum index for augmentation-charges          704 (set IRDMAX)


--------------------------------------------------------------------------------------------------------


 First call to EWALD:  gamma=   0.196
 Maximum number of real-space cells 5x 5x 1
 Maximum number of reciprocal cells 2x 2x 7

    FEWALD:  cpu time    0.0018: real time    0.0019


--------------------------------------- Iteration      1(   1)  ---------------------------------------


    POTLOK:  cpu time    0.0385: real time    0.0462
    SETDIJ:  cpu time    0.0067: real time    0.0102
     EDDAV:  cpu time    2.6112: real time    2.6863
       DOS:  cpu time    0.0020: real time    0.0042
    --------------------------------------------
      LOOP:  cpu time    2.6584: real time    2.7469

 eigenvalue-minimisations  :  2728
 total energy-change (2. order) : 0.1016461E+04  (-0.6079962E+04)
 number of electron     170.0000000 magnetization 
 augmentation part      170.0000000 magnetization 

 Free energy of the ion-electron system (eV)
  ---------------------------------------------------
  alpha Z        PSCENC =       358.28533891
  Ewald energy   TEWEN  =     72276.53582016
  -Hartree energ DENC   =    -85033.78822943
  -exchange      EXHF   =         0.00000000
  -V(xc)+E(xc)   XCENC  =        88.38362791
  PAW double counting   =     11602.90403888   -11137.02028253
  entropy T*S    EENTRO =        -0.00772320
  eigenvalues    EBANDS =       629.09276230
  atomic energy  EATOM  =     12232.07567246
  Solvation  Ediel_sol  =         0.00000000
  ---------------------------------------------------
  free energy    TOTEN  =      1016.46102546 eV

  energy without entropy =     1016.46874866  energy(sigma->0) =     1016.46359986


--------------------------------------------------------------------------------------------------------




--------------------------------------- Iteration      1(   2)  ---------------------------------------


     EDDAV:  cpu time    2.9954: real time    2.9982
       DOS:  cpu time    0.0019: real time    0.0019
    --------------------------------------------
      LOOP:  cpu time    2.9974: real time    3.0002

 eigenvalue-minimisations  :  3352
 total energy-change (2. order) :-0.1039088E+04  (-0.9654349E+03)
 number of electron     170.0000000 magnetization 
 augmentation part      170.0000000 magnetization 

 Free energy of the ion-electron system (eV)
  ---------------------------------------------------
  alpha Z        PSCENC =       358.28533891
  Ewald energy   TEWEN  =     72276.53582016
  -Hartree energ DENC   =    -85033.78822943
  -exchange      EXHF   =         0.00000000
  -V(xc)+E(xc)   XCENC  =        88.38362791
  PAW double counting   =     11602.90403888   -11137.02028253
  entropy T*S    EENTRO =        -0.01263512
  eigenvalues    EBANDS =      -409.98988678
  atomic energy  EATOM  =     12232.07567246
  Solvation  Ediel_sol  =         0.00000000
  ---------------------------------------------------
  free energy    TOTEN  =       -22.62653555 eV

  energy without entropy =      -22.61390043  energy(sigma->0) =      -22.62232384


--------------------------------------------------------------------------------------------------------




--------------------------------------- Iteration      1(   3)  ---------------------------------------


     EDDAV:  cpu time    2.8140: real time    2.8164
       DOS:  cpu time    0.0019: real time    0.0019
    --------------------------------------------
      LOOP:  cpu time    2.8159: real time    2.8183

 eigenvalue-minimisations  :  3128
 total energy-change (2. order) :-0.8046829E+02  (-0.7427006E+02)
 number of electron     170.0000000 magnetization 
 augmentation part      170.0000000 magnetization 

 Free energy of the ion-electron system (eV)
  ---------------------------------------------------
  alpha Z        PSCENC =       358.28533891
  Ewald energy   TEWEN  =     72276.53582016
  -Hartree energ DENC   =    -85033.78822943
  -exchange      EXHF   =         0.00000000
  -V(xc)+E(xc)   XCENC  =        88.38362791
  PAW double counting   =     11602.90403888   -11137.02028253
  entropy T*S    EENTRO =        -0.06019043
  eigenvalues    EBANDS =      -490.41061803
  atomic energy  EATOM  =     12232.07567246
  Solvation  Ediel_sol  =         0.00000000
  ---------------------------------------------------
  free energy    TOTEN  =      -103.09482211 eV

  energy without entropy =     -103.03463167  energy(sigma->0) =     -103.07475863


--------------------------------------------------------------------------------------------------------




--------------------------------------- Iteration      1(   4)  ---------------------------------------


     EDDAV:  cpu time    3.0584: real time    3.0595
       DOS:  cpu time    0.0019: real time    0.0019
    --------------------------------------------
      LOOP:  cpu time    3.0603: real time    3.0615

 eigenvalue-minimisations  :  3512
 total energy-change (2. order) :-0.3102496E+01  (-0.3006888E+01)
 number of electron     170.0000000 magnetization 
 augmentation part      170.0000000 magnetization 

 Free energy of the ion-electron system (eV)
  ---------------------------------------------------
  alpha Z        PSCENC =       358.28533891
  Ewald energy   TEWEN  =     72276.53582016
  -Hartree energ DENC   =    -85033.78822943
  -exchange      EXHF   =         0.00000000
  -V(xc)+E(xc)   XCENC  =        88.38362791
  PAW double counting   =     11602.90403888   -11137.02028253
  entropy T*S    EENTRO =        -0.06448935
  eigenvalues    EBANDS =      -493.50881479
  atomic energy  EATOM  =     12232.07567246
  Solvation  Ediel_sol  =         0.00000000
  ---------------------------------------------------
  free energy    TOTEN  =      -106.19731779 eV

  energy without entropy =     -106.13282844  energy(sigma->0) =     -106.17582134


--------------------------------------------------------------------------------------------------------




--------------------------------------- Iteration      1(   5)  ---------------------------------------


     EDDAV:  cpu time    2.9870: real time    2.9884
       DOS:  cpu time    0.0019: real time    0.0019
    CHARGE:  cpu time    0.1858: real time    0.1859
    MIXING:  cpu time    0.0013: real time    0.0029
    --------------------------------------------
      LOOP:  cpu time    3.1761: real time    3.1792

 eigenvalue-minimisations  :  3424
 total energy-change (2. order) :-0.8122798E-01  (-0.8102619E-01)
 number of electron     169.9999897 magnetization 
 augmentation part       47.4379098 magnetization 

 Broyden mixing:
  rms(total) = 0.40121E+01    rms(broyden)= 0.40116E+01
  rms(prec ) = 0.40751E+01
  weight for this iteration     100.00

 Free energy of the ion-electron system (eV)
  ---------------------------------------------------
  alpha Z        PSCENC =       358.28533891
  Ewald energy   TEWEN  =     72276.53582016
  -Hartree energ DENC   =    -85033.78822943
  -exchange      EXHF   =         0.00000000
  -V(xc)+E(xc)   XCENC  =        88.38362791
  PAW double counting   =     11602.90403888   -11137.02028253
  entropy T*S    EENTRO =        -0.06442538
  eigenvalues    EBANDS =      -493.59010674
  atomic energy  EATOM  =     12232.07567246
  Solvation  Ediel_sol  =         0.00000000
  ---------------------------------------------------
  free energy    TOTEN  =      -106.27854577 eV

  energy without entropy =     -106.21412039  energy(sigma->0) =     -106.25707064


--------------------------------------------------------------------------------------------------------




--------------------------------------- Iteration      1(   6)  ---------------------------------------


    POTLOK:  cpu time    0.0302: real time    0.0302
    SETDIJ:  cpu time    0.0057: real time    0.0057
     EDDAV:  cpu time    3.2176: real time    3.2187
       DOS:  cpu time    0.0021: real time    0.0021
    CHARGE:  cpu time    0.1874: real time    0.1874
    MIXING:  cpu time    0.0013: real time    0.0013
    --------------------------------------------
      LOOP:  cpu time    3.4444: real time    3.4455

 eigenvalue-minimisations  :  3712
 total energy-change (2. order) : 0.4768546E+01  (-0.2890115E+01)
 number of electron     169.9999931 magnetization 
 augmentation part       50.5561433 magnetization 

 Broyden mixing:
  rms(total) = 0.29384E+01    rms(broyden)= 0.29376E+01
  rms(prec ) = 0.30621E+01
  weight for this iteration     100.00

 eigenvalues of (default mixing * dielectric matrix)
  average eigenvalue GAMMA=   1.0910
  1.0910

 Free energy of the ion-electron system (eV)
  ---------------------------------------------------
  alpha Z        PSCENC =       358.28533891
  Ewald energy   TEWEN  =     72276.53582016
  -Hartree energ DENC   =    -84816.54592764
  -exchange      EXHF   =         0.00000000
  -V(xc)+E(xc)   XCENC  =        86.12306674
  PAW double counting   =     12817.25547878   -12374.03571232
  entropy T*S    EENTRO =        -0.03792410
  eigenvalues    EBANDS =      -681.16581240
  atomic energy  EATOM  =     12232.07567246
  Solvation  Ediel_sol  =         0.00000000
  ---------------------------------------------------
  free energy    TOTEN  =      -101.50999941 eV

  energy without entropy =     -101.47207531  energy(sigma->0) =     -101.49735805


--------------------------------------------------------------------------------------------------------




--------------------------------------- Iteration      1(   7)  ---------------------------------------


    POTLOK:  cpu time    0.0293: real time    0.0294
    SETDIJ:  cpu time    0.0054: real time    0.0054
     EDDAV:  cpu time    2.8518: real time    2.8528
       DOS:  cpu time    0.0019: real time    0.0019
    CHARGE:  cpu time    0.1852: real time    0.1854
    MIXING:  cpu time    0.0014: real time    0.0014
    --------------------------------------------
      LOOP:  cpu time    3.0749: real time    3.0764

 eigenvalue-minimisations  :  3184
 total energy-change (2. order) :-0.1154748E+02  (-0.3959573E+01)
 number of electron     169.9999865 magnetization 
 augmentation part       49.3957107 magnetization 

 Broyden mixing:
  rms(total) = 0.33053E+01    rms(broyden)= 0.33049E+01
  rms(prec ) = 0.37841E+01
  weight for this iteration     100.00

 eigenvalues of (default mixing * dielectric matrix)
  average eigenvalue GAMMA=   1.0149
  1.7201  0.3097

 Free energy of the ion-electron system (eV)
  ---------------------------------------------------
  alpha Z        PSCENC =       358.28533891
  Ewald energy   TEWEN  =     72276.53582016
  -Hartree energ DENC   =    -84983.59283146
  -exchange      EXHF   =         0.00000000
  -V(xc)+E(xc)   XCENC  =        84.61822825
  PAW double counting   =     13680.76667279   -13244.08888133
  entropy T*S    EENTRO =         0.04008170
  eigenvalues    EBANDS =      -517.69758565
  atomic energy  EATOM  =     12232.07567246
  Solvation  Ediel_sol  =         0.00000000
  ---------------------------------------------------
  free energy    TOTEN  =      -113.05748418 eV

  energy without entropy =     -113.09756588  energy(sigma->0) =     -113.07084475


--------------------------------------------------------------------------------------------------------




--------------------------------------- Iteration      1(   8)  ---------------------------------------


    POTLOK:  cpu time    0.0309: real time    0.0311
    SETDIJ:  cpu time    0.0043: real time    0.0043
     EDDAV:  cpu time    2.7245: real time    2.7254
       DOS:  cpu time    0.0020: real time    0.0020
    CHARGE:  cpu time    0.1831: real time    0.1831
    MIXING:  cpu time    0.0014: real time    0.0014
    --------------------------------------------
      LOOP:  cpu time    2.9461: real time    2.9472

 eigenvalue-minimisations  :  2992
 total energy-change (2. order) : 0.1175108E+02  (-0.3151112E+01)
 number of electron     169.9999917 magnetization 
 augmentation part       50.7635601 magnetization 

 Broyden mixing:
  rms(total) = 0.16788E+01    rms(broyden)= 0.16785E+01
  rms(prec ) = 0.21250E+01
  weight for this iteration     100.00

 eigenvalues of (default mixing * dielectric matrix)
  average eigenvalue GAMMA=   1.0376
  2.1943  0.6559  0.2627

 Free energy of the ion-electron system (eV)
  ---------------------------------------------------
  alpha Z        PSCENC =       358.28533891
  Ewald energy   TEWEN  =     72276.53582016
  -Hartree energ DENC   =    -84842.05122128
  -exchange      EXHF   =         0.00000000
  -V(xc)+E(xc)   XCENC  =        83.94383651
  PAW double counting   =     14438.02191605   -14009.05401797
  entropy T*S    EENTRO =        -0.00329938
  eigenvalues    EBANDS =      -639.06045339
  atomic energy  EATOM  =     12232.07567246
  Solvation  Ediel_sol  =         0.00000000
  ---------------------------------------------------
  free energy    TOTEN  =      -101.30640794 eV

  energy without entropy =     -101.30310856  energy(sigma->0) =     -101.30530814


--------------------------------------------------------------------------------------------------------




--------------------------------------- Iteration      1(   9)  ---------------------------------------


    POTLOK:  cpu time    0.0293: real time    0.0295
    SETDIJ:  cpu time    0.0043: real time    0.0043
     EDDAV:  cpu time    3.5718: real time    3.5730
       DOS:  cpu time    0.0020: real time    0.0020
    CHARGE:  cpu time    0.1835: real time    0.1835
    MIXING:  cpu time    0.0015: real time    0.0015
    --------------------------------------------
      LOOP:  cpu time    3.7924: real time    3.7938

 eigenvalue-minimisations  :  3672
 total energy-change (2. order) :-0.2146325E+02  (-0.6056167E+01)
 number of electron     169.9999921 magnetization 
 augmentation part       50.0958286 magnetization 

 Broyden mixing:
  rms(total) = 0.37309E+01    rms(broyden)= 0.37307E+01
  rms(prec ) = 0.54322E+01
  weight for this iteration     100.00

 eigenvalues of (default mixing * dielectric matrix)
  average eigenvalue GAMMA=   0.8729
  2.4033  0.7038  0.2656  0.1190

 Free energy of the ion-electron system (eV)
  ---------------------------------------------------
  alpha Z        PSCENC =       358.28533891
  Ewald energy   TEWEN  =     72276.53582016
  -Hartree energ DENC   =    -84860.76811198
  -exchange      EXHF   =         0.00000000
  -V(xc)+E(xc)   XCENC  =        84.12432515
  PAW double counting   =     14915.57917658   -14490.25208516
  entropy T*S    EENTRO =        -0.01309647
  eigenvalues    EBANDS =      -638.33669789
  atomic energy  EATOM  =     12232.07567246
  Solvation  Ediel_sol  =         0.00000000
  ---------------------------------------------------
  free energy    TOTEN  =      -122.76965825 eV

  energy without entropy =     -122.75656178  energy(sigma->0) =     -122.76529276


--------------------------------------------------------------------------------------------------------




--------------------------------------- Iteration      1(  10)  ---------------------------------------


    POTLOK:  cpu time    0.0289: real time    0.0291
    SETDIJ:  cpu time    0.0054: real time    0.0054
     EDDAV:  cpu time    3.0375: real time    3.0390
       DOS:  cpu time    0.0021: real time    0.0021
    CHARGE:  cpu time    0.1962: real time    0.1962
    MIXING:  cpu time    0.0016: real time    0.0016
    --------------------------------------------
      LOOP:  cpu time    3.2717: real time    3.2734

 eigenvalue-minimisations  :  3480
 total energy-change (2. order) : 0.2249446E+02  (-0.4293207E+01)
 number of electron     169.9999886 magnetization 
 augmentation part       50.9406906 magnetization 

 Broyden mixing:
  rms(total) = 0.12645E+01    rms(broyden)= 0.12641E+01
  rms(prec ) = 0.15601E+01
  weight for this iteration     100.00

 eigenvalues of (default mixing * dielectric matrix)
  average eigenvalue GAMMA=   0.7980
  2.1791  0.9215  0.5173  0.2051  0.1670

 Free energy of the ion-electron system (eV)
  ---------------------------------------------------
  alpha Z        PSCENC =       358.28533891
  Ewald energy   TEWEN  =     72276.53582016
  -Hartree energ DENC   =    -84857.23162074
  -exchange      EXHF   =         0.00000000
  -V(xc)+E(xc)   XCENC  =        84.09905062
  PAW double counting   =     15202.27218695   -14779.46474532
  entropy T*S    EENTRO =        -0.02289931
  eigenvalues    EBANDS =      -616.82400335
  atomic energy  EATOM  =     12232.07567246
  Solvation  Ediel_sol  =         0.00000000
  ---------------------------------------------------
  free energy    TOTEN  =      -100.27519962 eV

  energy without entropy =     -100.25230032  energy(sigma->0) =     -100.26756652


--------------------------------------------------------------------------------------------------------




--------------------------------------- Iteration      1(  11)  ---------------------------------------


    POTLOK:  cpu time    0.0294: real time    0.0294
    SETDIJ:  cpu time    0.0054: real time    0.0054
     EDDAV:  cpu time    2.6900: real time    2.6911
       DOS:  cpu time    0.0021: real time    0.0021
    CHARGE:  cpu time    0.1887: real time    0.1887
    MIXING:  cpu time    0.0018: real time    0.0018
    --------------------------------------------
      LOOP:  cpu time    2.9174: real time    2.9185

 eigenvalue-minimisations  :  2976
 total energy-change (2. order) : 0.9557580E+00  (-0.6398795E+00)
 number of electron     169.9999906 magnetization 
 augmentation part       50.7607263 magnetization 

 Broyden mixing:
  rms(total) = 0.74526E+00    rms(broyden)= 0.74513E+00
  rms(prec ) = 0.90579E+00
  weight for this iteration     100.00

 eigenvalues of (default mixing * dielectric matrix)
  average eigenvalue GAMMA=   0.7057
  2.1415  0.9313  0.5011  0.3000  0.2141  0.1461

 Free energy of the ion-electron system (eV)
  ---------------------------------------------------
  alpha Z        PSCENC =       358.28533891
  Ewald energy   TEWEN  =     72276.53582016
  -Hartree energ DENC   =    -84853.94556327
  -exchange      EXHF   =         0.00000000
  -V(xc)+E(xc)   XCENC  =        84.47041663
  PAW double counting   =     15154.77199710   -14729.97846951
  entropy T*S    EENTRO =         0.00505997
  eigenvalues    EBANDS =      -621.53971406
  atomic energy  EATOM  =     12232.07567246
  Solvation  Ediel_sol  =         0.00000000
  ---------------------------------------------------
  free energy    TOTEN  =       -99.31944162 eV

  energy without entropy =      -99.32450159  energy(sigma->0) =      -99.32112827


--------------------------------------------------------------------------------------------------------




--------------------------------------- Iteration      1(  12)  ---------------------------------------


    POTLOK:  cpu time    0.0302: real time    0.0306
    SETDIJ:  cpu time    0.0055: real time    0.0055
     EDDAV:  cpu time    2.7802: real time    2.7805
       DOS:  cpu time    0.0020: real time    0.0020
    CHARGE:  cpu time    0.1851: real time    0.1851
    MIXING:  cpu time    0.0017: real time    0.0017
    --------------------------------------------
      LOOP:  cpu time    3.0046: real time    3.0053

 eigenvalue-minimisations  :  3112
 total energy-change (2. order) : 0.4002003E+00  (-0.1294814E+00)
 number of electron     169.9999909 magnetization 
 augmentation part       50.7160616 magnetization 

 Broyden mixing:
  rms(total) = 0.44757E+00    rms(broyden)= 0.44753E+00
  rms(prec ) = 0.50854E+00
  weight for this iteration     100.00

 eigenvalues of (default mixing * dielectric matrix)
  average eigenvalue GAMMA=   0.7006
  2.2106  0.7681  0.6454  0.6454  0.1512  0.2240  0.2599

 Free energy of the ion-electron system (eV)
  ---------------------------------------------------
  alpha Z        PSCENC =       358.28533891
  Ewald energy   TEWEN  =     72276.53582016
  -Hartree energ DENC   =    -84852.25128138
  -exchange      EXHF   =         0.00000000
  -V(xc)+E(xc)   XCENC  =        84.51002098
  PAW double counting   =     15126.89960188   -14701.75972978
  entropy T*S    EENTRO =        -0.00135396
  eigenvalues    EBANDS =      -623.21333058
  atomic energy  EATOM  =     12232.07567246
  Solvation  Ediel_sol  =         0.00000000
  ---------------------------------------------------
  free energy    TOTEN  =       -98.91924131 eV

  energy without entropy =      -98.91788735  energy(sigma->0) =      -98.91878999


--------------------------------------------------------------------------------------------------------




--------------------------------------- Iteration      1(  13)  ---------------------------------------


    POTLOK:  cpu time    0.0296: real time    0.0305
    SETDIJ:  cpu time    0.0057: real time    0.0057
     EDDAV:  cpu time    2.7693: real time    2.7694
       DOS:  cpu time    0.0020: real time    0.0020
    CHARGE:  cpu time    0.1839: real time    0.1839
    MIXING:  cpu time    0.0018: real time    0.0018
    --------------------------------------------
      LOOP:  cpu time    2.9923: real time    2.9933

 eigenvalue-minimisations  :  3136
 total energy-change (2. order) : 0.1216903E+00  (-0.4113089E-01)
 number of electron     169.9999903 magnetization 
 augmentation part       50.7090743 magnetization 

 Broyden mixing:
  rms(total) = 0.19722E+00    rms(broyden)= 0.19719E+00
  rms(prec ) = 0.21375E+00
  weight for this iteration     100.00

 eigenvalues of (default mixing * dielectric matrix)
  average eigenvalue GAMMA=   0.7216
  2.2296  0.7674  0.7674  0.8354  0.5273  0.1515  0.2188  0.2756

 Free energy of the ion-electron system (eV)
  ---------------------------------------------------
  alpha Z        PSCENC =       358.28533891
  Ewald energy   TEWEN  =     72276.53582016
  -Hartree energ DENC   =    -84853.72547438
  -exchange      EXHF   =         0.00000000
  -V(xc)+E(xc)   XCENC  =        84.47122221
  PAW double counting   =     15102.94001979   -14678.02025073
  entropy T*S    EENTRO =        -0.01653724
  eigenvalues    EBANDS =      -621.34336222
  atomic energy  EATOM  =     12232.07567246
  Solvation  Ediel_sol  =         0.00000000
  ---------------------------------------------------
  free energy    TOTEN  =       -98.79755106 eV

  energy without entropy =      -98.78101382  energy(sigma->0) =      -98.79203864


--------------------------------------------------------------------------------------------------------




--------------------------------------- Iteration      1(  14)  ---------------------------------------


    POTLOK:  cpu time    0.0293: real time    0.0293
    SETDIJ:  cpu time    0.0057: real time    0.0057
     EDDAV:  cpu time    2.6739: real time    2.6740
       DOS:  cpu time    0.0021: real time    0.0021
    CHARGE:  cpu time    0.1838: real time    0.1838
    MIXING:  cpu time    0.0019: real time    0.0019
    --------------------------------------------
      LOOP:  cpu time    2.8966: real time    2.8967

 eigenvalue-minimisations  :  3016
 total energy-change (2. order) :-0.3795497E-02  (-0.1946775E-01)
 number of electron     169.9999902 magnetization 
 augmentation part       50.6900683 magnetization 

 Broyden mixing:
  rms(total) = 0.22545E+00    rms(broyden)= 0.22542E+00
  rms(prec ) = 0.24413E+00
  weight for this iteration     100.00

 eigenvalues of (default mixing * dielectric matrix)
  average eigenvalue GAMMA=   0.7341
  2.1808  0.9919  0.9919  0.8246  0.6458  0.3529  0.1516  0.2151  0.2522

 Free energy of the ion-electron system (eV)
  ---------------------------------------------------
  alpha Z        PSCENC =       358.28533891
  Ewald energy   TEWEN  =     72276.53582016
  -Hartree energ DENC   =    -84856.54379047
  -exchange      EXHF   =         0.00000000
  -V(xc)+E(xc)   XCENC  =        84.49844172
  PAW double counting   =     15075.05927170   -14650.16701368
  entropy T*S    EENTRO =        -0.01336354
  eigenvalues    EBANDS =      -618.53172382
  atomic energy  EATOM  =     12232.07567246
  Solvation  Ediel_sol  =         0.00000000
  ---------------------------------------------------
  free energy    TOTEN  =       -98.80134655 eV

  energy without entropy =      -98.78798301  energy(sigma->0) =      -98.79689204


--------------------------------------------------------------------------------------------------------




--------------------------------------- Iteration      1(  15)  ---------------------------------------


    POTLOK:  cpu time    0.0292: real time    0.0292
    SETDIJ:  cpu time    0.0056: real time    0.0056
     EDDAV:  cpu time    2.7381: real time    2.7382
       DOS:  cpu time    0.0020: real time    0.0020
    CHARGE:  cpu time    0.1832: real time    0.1832
    MIXING:  cpu time    0.0020: real time    0.0020
    --------------------------------------------
      LOOP:  cpu time    2.9601: real time    2.9602

 eigenvalue-minimisations  :  3072
 total energy-change (2. order) : 0.1119569E-01  (-0.4986307E-02)
 number of electron     169.9999902 magnetization 
 augmentation part       50.6656280 magnetization 

 Broyden mixing:
  rms(total) = 0.15435E+00    rms(broyden)= 0.15435E+00
  rms(prec ) = 0.19330E+00
  weight for this iteration     100.00

 eigenvalues of (default mixing * dielectric matrix)
  average eigenvalue GAMMA=   0.7630
  1.8207  1.4910  1.4910  0.6316  0.6316  0.5758  0.3597  0.1516  0.2176  0.2594

 Free energy of the ion-electron system (eV)
  ---------------------------------------------------
  alpha Z        PSCENC =       358.28533891
  Ewald energy   TEWEN  =     72276.53582016
  -Hartree energ DENC   =    -84859.28772025
  -exchange      EXHF   =         0.00000000
  -V(xc)+E(xc)   XCENC  =        84.54911425
  PAW double counting   =     15029.99083838   -14604.91946362
  entropy T*S    EENTRO =        -0.01743073
  eigenvalues    EBANDS =      -616.00232041
  atomic energy  EATOM  =     12232.07567246
  Solvation  Ediel_sol  =         0.00000000
  ---------------------------------------------------
  free energy    TOTEN  =       -98.79015086 eV

  energy without entropy =      -98.77272013  energy(sigma->0) =      -98.78434062


--------------------------------------------------------------------------------------------------------




--------------------------------------- Iteration      1(  16)  ---------------------------------------


    POTLOK:  cpu time    0.0297: real time    0.0298
    SETDIJ:  cpu time    0.0054: real time    0.0054
     EDDAV:  cpu time    2.7036: real time    2.7037
       DOS:  cpu time    0.0021: real time    0.0021
    CHARGE:  cpu time    0.1829: real time    0.1829
    MIXING:  cpu time    0.0021: real time    0.0021
    --------------------------------------------
      LOOP:  cpu time    2.9258: real time    2.9260

 eigenvalue-minimisations  :  3008
 total energy-change (2. order) : 0.8701275E-02  (-0.6045737E-02)
 number of electron     169.9999904 magnetization 
 augmentation part       50.6448308 magnetization 

 Broyden mixing:
  rms(total) = 0.12724E+00    rms(broyden)= 0.12723E+00
  rms(prec ) = 0.14237E+00
  weight for this iteration     100.00

 eigenvalues of (default mixing * dielectric matrix)
  average eigenvalue GAMMA=   0.7771
  2.0410  1.6384  1.6384  0.6495  0.6495  0.6223  0.4101  0.1516  0.2173  0.2802
  0.2496

 Free energy of the ion-electron system (eV)
  ---------------------------------------------------
  alpha Z        PSCENC =       358.28533891
  Ewald energy   TEWEN  =     72276.53582016
  -Hartree energ DENC   =    -84860.16323372
  -exchange      EXHF   =         0.00000000
  -V(xc)+E(xc)   XCENC  =        84.60721777
  PAW double counting   =     14973.97290951   -14548.69526971
  entropy T*S    EENTRO =        -0.01335374
  eigenvalues    EBANDS =      -615.38655123
  atomic energy  EATOM  =     12232.07567246
  Solvation  Ediel_sol  =         0.00000000
  ---------------------------------------------------
  free energy    TOTEN  =       -98.78144959 eV

  energy without entropy =      -98.76809585  energy(sigma->0) =      -98.77699834


--------------------------------------------------------------------------------------------------------




--------------------------------------- Iteration      1(  17)  ---------------------------------------


    POTLOK:  cpu time    0.0296: real time    0.0297
    SETDIJ:  cpu time    0.0056: real time    0.0056
     EDDAV:  cpu time    2.7391: real time    2.7392
       DOS:  cpu time    0.0021: real time    0.0021
    CHARGE:  cpu time    0.1830: real time    0.1830
    MIXING:  cpu time    0.0023: real time    0.0023
    --------------------------------------------
      LOOP:  cpu time    2.9617: real time    2.9619

 eigenvalue-minimisations  :  3048
 total energy-change (2. order) : 0.7059868E-02  (-0.2793997E-02)
 number of electron     169.9999903 magnetization 
 augmentation part       50.6499773 magnetization 

 Broyden mixing:
  rms(total) = 0.47965E-01    rms(broyden)= 0.47955E-01
  rms(prec ) = 0.54757E-01
  weight for this iteration     100.00

 eigenvalues of (default mixing * dielectric matrix)
  average eigenvalue GAMMA=   0.7762
  2.1700  1.6129  1.6129  0.6979  0.6979  0.6545  0.6264  0.1516  0.3507  0.2177
  0.2539  0.2680

 Free energy of the ion-electron system (eV)
  ---------------------------------------------------
  alpha Z        PSCENC =       358.28533891
  Ewald energy   TEWEN  =     72276.53582016
  -Hartree energ DENC   =    -84860.50731913
  -exchange      EXHF   =         0.00000000
  -V(xc)+E(xc)   XCENC  =        84.61058659
  PAW double counting   =     14962.57329371   -14537.33780380
  entropy T*S    EENTRO =        -0.01883209
  eigenvalues    EBANDS =      -614.99114652
  atomic energy  EATOM  =     12232.07567246
  Solvation  Ediel_sol  =         0.00000000
  ---------------------------------------------------
  free energy    TOTEN  =       -98.77438972 eV

  energy without entropy =      -98.75555763  energy(sigma->0) =      -98.76811235


--------------------------------------------------------------------------------------------------------




--------------------------------------- Iteration      1(  18)  ---------------------------------------


    POTLOK:  cpu time    0.0298: real time    0.0300
    SETDIJ:  cpu time    0.0042: real time    0.0042
     EDDAV:  cpu time    2.7628: real time    2.7629
       DOS:  cpu time    0.0020: real time    0.0020
    CHARGE:  cpu time    0.1839: real time    0.1839
    MIXING:  cpu time    0.0026: real time    0.0026
    --------------------------------------------
      LOOP:  cpu time    2.9854: real time    2.9857

 eigenvalue-minimisations  :  3024
 total energy-change (2. order) : 0.8365774E-03  (-0.3275154E-03)
 number of electron     169.9999903 magnetization 
 augmentation part       50.6477481 magnetization 

 Broyden mixing:
  rms(total) = 0.35203E-01    rms(broyden)= 0.35201E-01
  rms(prec ) = 0.40198E-01
  weight for this iteration     100.00

 eigenvalues of (default mixing * dielectric matrix)
  average eigenvalue GAMMA=   0.8006
  2.2218  1.6263  1.6263  1.1296  0.6950  0.6950  0.6689  0.5045  0.3564  0.1516
  0.2176  0.2683  0.2459

 Free energy of the ion-electron system (eV)
  ---------------------------------------------------
  alpha Z        PSCENC =       358.28533891
  Ewald energy   TEWEN  =     72276.53582016
  -Hartree energ DENC   =    -84860.97387514
  -exchange      EXHF   =         0.00000000
  -V(xc)+E(xc)   XCENC  =        84.61822561
  PAW double counting   =     14966.30205400   -14541.06507248
  entropy T*S    EENTRO =        -0.01855763
  eigenvalues    EBANDS =      -614.53315903
  atomic energy  EATOM  =     12232.07567246
  Solvation  Ediel_sol  =         0.00000000
  ---------------------------------------------------
  free energy    TOTEN  =       -98.77355314 eV

  energy without entropy =      -98.75499551  energy(sigma->0) =      -98.76736726


--------------------------------------------------------------------------------------------------------




--------------------------------------- Iteration      1(  19)  ---------------------------------------


    POTLOK:  cpu time    0.0307: real time    0.0311
    SETDIJ:  cpu time    0.0043: real time    0.0043
     EDDAV:  cpu time    2.6797: real time    2.6798
       DOS:  cpu time    0.0021: real time    0.0021
    CHARGE:  cpu time    0.1829: real time    0.1829
    MIXING:  cpu time    0.0025: real time    0.0025
    --------------------------------------------
      LOOP:  cpu time    2.9021: real time    2.9026

 eigenvalue-minimisations  :  2968
 total energy-change (2. order) : 0.7502391E-03  (-0.3586279E-03)
 number of electron     169.9999903 magnetization 
 augmentation part       50.6428317 magnetization 

 Broyden mixing:
  rms(total) = 0.19974E-01    rms(broyden)= 0.19971E-01
  rms(prec ) = 0.22176E-01
  weight for this iteration     100.00

 eigenvalues of (default mixing * dielectric matrix)
  average eigenvalue GAMMA=   0.8532
  2.4235  1.8828  1.8828  1.0732  1.0732  0.6734  0.6734  0.6280  0.1516  0.3975
  0.3504  0.2176  0.2683  0.2491

 Free energy of the ion-electron system (eV)
  ---------------------------------------------------
  alpha Z        PSCENC =       358.28533891
  Ewald energy   TEWEN  =     72276.53582016
  -Hartree energ DENC   =    -84861.58619740
  -exchange      EXHF   =         0.00000000
  -V(xc)+E(xc)   XCENC  =        84.62897912
  PAW double counting   =     14970.28395885   -14545.01255337
  entropy T*S    EENTRO =        -0.01825979
  eigenvalues    EBANDS =      -613.96556183
  atomic energy  EATOM  =     12232.07567246
  Solvation  Ediel_sol  =         0.00000000
  ---------------------------------------------------
  free energy    TOTEN  =       -98.77280290 eV

  energy without entropy =      -98.75454311  energy(sigma->0) =      -98.76671630


--------------------------------------------------------------------------------------------------------




--------------------------------------- Iteration      1(  20)  ---------------------------------------


    POTLOK:  cpu time    0.0304: real time    0.0305
    SETDIJ:  cpu time    0.0054: real time    0.0054
     EDDAV:  cpu time    2.5202: real time    2.5203
       DOS:  cpu time    0.0021: real time    0.0033
    CHARGE:  cpu time    0.1840: real time    0.1840
    MIXING:  cpu time    0.0026: real time    0.0026
    --------------------------------------------
      LOOP:  cpu time    2.7447: real time    2.7461

 eigenvalue-minimisations  :  2696
 total energy-change (2. order) : 0.1712406E-03  (-0.6429151E-04)
 number of electron     169.9999903 magnetization 
 augmentation part       50.6438161 magnetization 

 Broyden mixing:
  rms(total) = 0.66768E-02    rms(broyden)= 0.66742E-02
  rms(prec ) = 0.84142E-02
  weight for this iteration     100.00

 eigenvalues of (default mixing * dielectric matrix)
  average eigenvalue GAMMA=   0.8657
  2.3423  1.8629  1.8629  1.2463  1.2463  0.6875  0.6875  0.7710  0.6424  0.1516
  0.3983  0.3519  0.2176  0.2686  0.2488

 Free energy of the ion-electron system (eV)
  ---------------------------------------------------
  alpha Z        PSCENC =       358.28533891
  Ewald energy   TEWEN  =     72276.53582016
  -Hartree energ DENC   =    -84862.07303810
  -exchange      EXHF   =         0.00000000
  -V(xc)+E(xc)   XCENC  =        84.63207686
  PAW double counting   =     14973.84446593   -14548.57962802
  entropy T*S    EENTRO =        -0.01829831
  eigenvalues    EBANDS =      -613.47504155
  atomic energy  EATOM  =     12232.07567246
  Solvation  Ediel_sol  =         0.00000000
  ---------------------------------------------------
  free energy    TOTEN  =       -98.77263166 eV

  energy without entropy =      -98.75433335  energy(sigma->0) =      -98.76653222


--------------------------------------------------------------------------------------------------------




--------------------------------------- Iteration      1(  21)  ---------------------------------------


    POTLOK:  cpu time    0.0304: real time    0.0305
    SETDIJ:  cpu time    0.0054: real time    0.0054
     EDDAV:  cpu time    1.9064: real time    1.9064
       DOS:  cpu time    0.0020: real time    0.0020
    --------------------------------------------
      LOOP:  cpu time    1.9442: real time    1.9444

 eigenvalue-minimisations  :  1760
 total energy-change (2. order) :-0.7134575E-04  (-0.1963771E-04)
 number of electron     169.9999903 magnetization 
 augmentation part       50.6438161 magnetization 

 Free energy of the ion-electron system (eV)
  ---------------------------------------------------
  alpha Z        PSCENC =       358.28533891
  Ewald energy   TEWEN  =     72276.53582016
  -Hartree energ DENC   =    -84862.48058856
  -exchange      EXHF   =         0.00000000
  -V(xc)+E(xc)   XCENC  =        84.63776588
  PAW double counting   =     14973.17697617   -14547.89221935
  entropy T*S    EENTRO =        -0.01807407
  eigenvalues    EBANDS =      -613.09339459
  atomic energy  EATOM  =     12232.07567246
  Solvation  Ediel_sol  =         0.00000000
  ---------------------------------------------------
  free energy    TOTEN  =       -98.77270301 eV

  energy without entropy =      -98.75462893  energy(sigma->0) =      -98.76667832


--------------------------------------------------------------------------------------------------------




 average (electrostatic) potential at core
  the test charge radii are     1.2059  0.6991  0.7215
  (the norm of the test charge is              1.0000)
       1 -73.8017       2 -73.7768       3 -73.7762       4 -73.7763       5 -74.1387
       6 -74.1386       7 -74.1376       8 -74.2580       9 -74.1503      10 -74.0980
      11 -74.1498      12 -74.1497      13 -73.8118      14 -74.0207      15 -74.0207
      16 -74.0207      17 -57.2371      18 -77.0255
 
 
 
 E-fermi :  -0.1631     XC(G=0):  -5.4724     alpha+bet : -5.6359


 k-point     1 :       0.0000    0.0000    0.0000
  band No.  band energies     occupation 
      1     -22.3988      2.00000
      2     -10.8754      2.00000
      3      -9.1111      2.00000
      4      -7.8013      2.00000
      5      -6.9965      2.00000
      6      -6.7849      2.00000
      7      -6.7497      2.00000
      8      -6.7496      2.00000
      9      -6.5061      2.00000
     10      -6.4373      2.00000
     11      -6.3104      2.00000
     12      -6.3104      2.00000
     13      -6.2805      2.00000
     14      -6.2804      2.00000
     15      -6.1799      2.00000
     16      -5.8804      2.00000
     17      -5.8326      2.00000
     18      -5.8326      2.00000
     19      -5.6738      2.00000
     20      -5.6737      2.00000
     21      -5.6502      2.00000
     22      -5.3870      2.00000
     23      -5.3870      2.00000
     24      -5.0525      2.00000
     25      -4.7855      2.00000
     26      -4.7855      2.00000
     27      -4.6168      2.00000
     28      -3.8341      2.00000
     29      -3.8341      2.00000
     30      -3.7762      2.00000
     31      -3.7396      2.00000
     32      -3.7396      2.00000
     33      -3.7116      2.00000
     34      -3.5837      2.00000
     35      -3.5150      2.00000
     36      -3.5150      2.00000
     37      -3.3978      2.00000
     38      -3.3978      2.00000
     39      -3.2850      2.00000
     40      -3.2850      2.00000
     41      -3.1942      2.00000
     42      -3.1941      2.00000
     43      -3.1651      2.00000
     44      -3.1054      2.00000
     45      -3.0356      2.00000
     46      -3.0356      2.00000
     47      -2.7094      2.00000
     48      -2.6644      2.00000
     49      -2.6643      2.00000
     50      -2.5019      2.00000
     51      -2.3358      2.00000
     52      -2.3358      2.00000
     53      -2.1991      2.00000
     54      -2.1061      2.00000
     55      -2.1061      2.00000
     56      -1.9353      2.00000
     57      -1.6708      2.00000
     58      -1.6708      2.00000
     59      -1.4777      2.00000
     60      -1.4776      2.00000
     61      -1.2433      2.00000
     62      -1.2432      2.00000
     63      -1.1744      2.00000
     64      -0.9637      2.00000
     65      -0.9637      2.00000
     66      -0.8243      2.00003
     67      -0.8098      2.00005
     68      -0.8096      2.00005
     69      -0.4699      2.05224
     70      -0.4698      2.05228
     71      -0.3852      2.06622
     72      -0.3565      2.04275
     73      -0.3564      2.04263
     74      -0.3375      2.01248
     75      -0.2364      1.57668
     76      -0.2363      1.57606
     77      -0.0673      0.28310
     78      -0.0672      0.28282
     79      -0.0573      0.22880
     80       0.0123     -0.01443
     81       0.0124     -0.01457
     82       0.0302     -0.04265
     83       0.0403     -0.05357
     84       0.1201     -0.06234
     85       0.1557     -0.04667
     86       0.1558     -0.04665
     87       0.2993     -0.00515
     88       0.2994     -0.00514
     89       0.3025     -0.00482
     90       0.6032     -0.00000
     91       0.7835     -0.00000
     92       0.7835     -0.00000
     93       1.6507     -0.00000
     94       1.8577     -0.00000
     95       1.8579     -0.00000
     96       2.4467     -0.00000
     97       2.4738     -0.00000
     98       2.4738     -0.00000
     99       2.6826     -0.00000
    100       2.6946     -0.00000
    101       2.6946     -0.00000
    102       3.3223     -0.00000
    103       3.3224     -0.00000
    104       4.9574     -0.00000

 k-point     2 :       0.2000    0.0000    0.0000
  band No.  band energies     occupation 
      1     -22.3984      2.00000
      2     -10.7776      2.00000
      3      -8.7982      2.00000
      4      -7.5288      2.00000
      5      -6.8784      2.00000
      6      -6.7232      2.00000
      7      -6.6070      2.00000
      8      -6.4752      2.00000
      9      -6.3999      2.00000
     10      -6.2721      2.00000
     11      -6.1966      2.00000
     12      -6.1368      2.00000
     13      -6.1026      2.00000
     14      -6.0624      2.00000
     15      -5.9533      2.00000
     16      -5.7329      2.00000
     17      -5.6800      2.00000
     18      -5.6688      2.00000
     19      -5.5619      2.00000
     20      -5.4122      2.00000
     21      -5.4080      2.00000
     22      -5.2759      2.00000
     23      -5.2098      2.00000
     24      -4.9300      2.00000
     25      -4.7101      2.00000
     26      -4.6880      2.00000
     27      -4.6028      2.00000
     28      -3.9828      2.00000
     29      -3.9502      2.00000
     30      -3.8873      2.00000
     31      -3.8006      2.00000
     32      -3.7522      2.00000
     33      -3.7066      2.00000
     34      -3.6039      2.00000
     35      -3.5855      2.00000
     36      -3.4864      2.00000
     37      -3.3459      2.00000
     38      -3.3284      2.00000
     39      -3.2887      2.00000
     40      -3.2609      2.00000
     41      -3.1950      2.00000
     42      -3.1522      2.00000
     43      -3.1291      2.00000
     44      -3.0700      2.00000
     45      -3.0576      2.00000
     46      -2.9945      2.00000
     47      -2.9448      2.00000
     48      -2.8647      2.00000
     49      -2.8085      2.00000
     50      -2.8057      2.00000
     51      -2.6744      2.00000
     52      -2.6503      2.00000
     53      -2.3387      2.00000
     54      -2.2503      2.00000
     55      -2.0602      2.00000
     56      -1.9947      2.00000
     57      -1.8805      2.00000
     58      -1.8427      2.00000
     59      -1.6553      2.00000
     60      -1.6111      2.00000
     61      -1.4949      2.00000
     62      -1.4745      2.00000
     63      -1.3754      2.00000
     64      -1.3441      2.00000
     65      -1.3118      2.00000
     66      -1.2407      2.00000
     67      -1.2355      2.00000
     68      -1.1495      2.00000
     69      -1.0207      2.00000
     70      -0.8456      2.00002
     71      -0.8242      2.00003
     72      -0.7019      2.00093
     73      -0.6619      2.00238
     74      -0.6018      2.00815
     75      -0.5587      2.01717
     76      -0.5213      2.02957
     77      -0.5133      2.03278
     78      -0.4440      2.06321
     79      -0.4360      2.06596
     80      -0.4061      2.07089
     81      -0.2763      1.80832
     82      -0.2208      1.46672
     83      -0.2074      1.36521
     84      -0.1923      1.24421
     85      -0.1403      0.80847
     86      -0.0088      0.03507
     87       0.0147     -0.01892
     88       0.0548     -0.06421
     89       0.0951     -0.06969
     90       0.1737     -0.03850
     91       0.9054     -0.00000
     92       1.2727     -0.00000
     93       1.3812     -0.00000
     94       1.6168     -0.00000
     95       1.8542     -0.00000
     96       1.9150     -0.00000
     97       2.4641     -0.00000
     98       2.5091     -0.00000
     99       3.1022     -0.00000
    100       3.5751     -0.00000
    101       3.8578     -0.00000
    102       4.2325     -0.00000
    103       4.4201     -0.00000
    104       5.2826     -0.00000

 k-point     3 :       0.4000    0.0000    0.0000
  band No.  band energies     occupation 
      1     -22.3977      2.00000
      2     -10.6146      2.00000
      3      -7.9567      2.00000
      4      -7.0745      2.00000
      5      -6.9011      2.00000
      6      -6.6270      2.00000
      7      -6.4611      2.00000
[...]
     97       2.8070     -0.00000
     98       2.8136     -0.00000
     99       3.3091     -0.00000
    100       4.0614     -0.00000
    101       4.1466     -0.00000
    102       4.7665     -0.00000
    103       5.4054      0.00000
    104       5.9560      0.00000

 k-point    12 :      -0.4000    0.4000    0.0000
  band No.  band energies     occupation 
      1     -22.3973      2.00000
      2     -10.5634      2.00000
      3      -7.3108      2.00000
      4      -7.1795      2.00000
      5      -6.7477      2.00000
      6      -6.6375      2.00000
      7      -6.4137      2.00000
      8      -6.1948      2.00000
      9      -6.1176      2.00000
     10      -5.9567      2.00000
     11      -5.5989      2.00000
     12      -5.4104      2.00000
     13      -5.3233      2.00000
     14      -5.2978      2.00000
     15      -5.2165      2.00000
     16      -5.1480      2.00000
     17      -5.0632      2.00000
     18      -5.0067      2.00000
     19      -4.9648      2.00000
     20      -4.7801      2.00000
     21      -4.7713      2.00000
     22      -4.7498      2.00000
     23      -4.7053      2.00000
     24      -4.6138      2.00000
     25      -4.5677      2.00000
     26      -4.4181      2.00000
     27      -4.3946      2.00000
     28      -4.3627      2.00000
     29      -4.3547      2.00000
     30      -4.3008      2.00000
     31      -4.2378      2.00000
     32      -4.2034      2.00000
     33      -4.1526      2.00000
     34      -3.9930      2.00000
     35      -3.8227      2.00000
     36      -3.7921      2.00000
     37      -3.7307      2.00000
     38      -3.7170      2.00000
     39      -3.6504      2.00000
     40      -3.6024      2.00000
     41      -3.5648      2.00000
     42      -3.5214      2.00000
     43      -3.5048      2.00000
     44      -3.4754      2.00000
     45      -3.3964      2.00000
     46      -3.2254      2.00000
     47      -3.1041      2.00000
     48      -3.0906      2.00000
     49      -2.9626      2.00000
     50      -2.9415      2.00000
     51      -2.8810      2.00000
     52      -2.8147      2.00000
     53      -2.7924      2.00000
     54      -2.7832      2.00000
     55      -2.6256      2.00000
     56      -2.5477      2.00000
     57      -2.3137      2.00000
     58      -2.2885      2.00000
     59      -2.2333      2.00000
     60      -2.1865      2.00000
     61      -2.1525      2.00000
     62      -2.0662      2.00000
     63      -2.0270      2.00000
     64      -1.8986      2.00000
     65      -1.8416      2.00000
     66      -1.7730      2.00000
     67      -1.6900      2.00000
     68      -1.6212      2.00000
     69      -1.5741      2.00000
     70      -1.4059      2.00000
     71      -1.3547      2.00000
     72      -1.3482      2.00000
     73      -1.2803      2.00000
     74      -1.2199      2.00000
     75      -1.1703      2.00000
     76      -1.0800      2.00000
     77      -0.9985      2.00000
     78      -0.9040      2.00000
     79      -0.8586      2.00001
     80      -0.7964      2.00007
     81      -0.6945      2.00112
     82      -0.5545      2.01832
     83      -0.4809      2.04713
     84      -0.4305      2.06761
     85      -0.4032      2.07073
     86      -0.3372      2.01190
     87      -0.2143      1.41806
     88      -0.1668      1.03109
     89       0.0277     -0.03941
     90       0.2055     -0.02568
     91       0.2318     -0.01735
     92       0.3107     -0.00407
     93       1.1087     -0.00000
     94       1.7495     -0.00000
     95       2.0123     -0.00000
     96       2.7950     -0.00000
     97       3.1680     -0.00000
     98       3.5156     -0.00000
     99       3.7220     -0.00000
    100       4.3840     -0.00000
    101       4.6246     -0.00000
    102       5.0889     -0.00000
    103       5.3343      0.00000
    104       5.4860      0.00000

 k-point    13 :      -0.2000    0.4000    0.0000
  band No.  band energies     occupation 
      1     -22.3973      2.00000
      2     -10.5634      2.00000
      3      -7.3107      2.00000
      4      -7.1796      2.00000
      5      -6.7476      2.00000
      6      -6.6375      2.00000
      7      -6.4137      2.00000
      8      -6.1949      2.00000
      9      -6.1176      2.00000
     10      -5.9567      2.00000
     11      -5.5989      2.00000
     12      -5.4104      2.00000
     13      -5.3233      2.00000
     14      -5.2979      2.00000
     15      -5.2165      2.00000
     16      -5.1481      2.00000
     17      -5.0632      2.00000
     18      -5.0066      2.00000
     19      -4.9648      2.00000
     20      -4.7801      2.00000
     21      -4.7713      2.00000
     22      -4.7498      2.00000
     23      -4.7053      2.00000
     24      -4.6138      2.00000
     25      -4.5677      2.00000
     26      -4.4181      2.00000
     27      -4.3946      2.00000
     28      -4.3627      2.00000
     29      -4.3547      2.00000
     30      -4.3008      2.00000
     31      -4.2378      2.00000
     32      -4.2034      2.00000
     33      -4.1526      2.00000
     34      -3.9930      2.00000
     35      -3.8228      2.00000
     36      -3.7921      2.00000
     37      -3.7307      2.00000
     38      -3.7169      2.00000
     39      -3.6504      2.00000
     40      -3.6024      2.00000
     41      -3.5648      2.00000
     42      -3.5214      2.00000
     43      -3.5049      2.00000
     44      -3.4755      2.00000
     45      -3.3963      2.00000
     46      -3.2255      2.00000
     47      -3.1042      2.00000
     48      -3.0905      2.00000
     49      -2.9626      2.00000
     50      -2.9416      2.00000
     51      -2.8808      2.00000
     52      -2.8146      2.00000
     53      -2.7924      2.00000
     54      -2.7832      2.00000
     55      -2.6256      2.00000
     56      -2.5477      2.00000
     57      -2.3138      2.00000
     58      -2.2884      2.00000
     59      -2.2333      2.00000
     60      -2.1864      2.00000
     61      -2.1526      2.00000
     62      -2.0662      2.00000
     63      -2.0270      2.00000
     64      -1.8987      2.00000
     65      -1.8416      2.00000
     66      -1.7730      2.00000
     67      -1.6900      2.00000
     68      -1.6212      2.00000
     69      -1.5741      2.00000
     70      -1.4059      2.00000
     71      -1.3548      2.00000
     72      -1.3482      2.00000
     73      -1.2802      2.00000
     74      -1.2200      2.00000
     75      -1.1703      2.00000
     76      -1.0800      2.00000
     77      -0.9985      2.00000
     78      -0.9040      2.00000
     79      -0.8586      2.00001
     80      -0.7964      2.00007
     81      -0.6944      2.00112
     82      -0.5545      2.01832
     83      -0.4810      2.04711
     84      -0.4302      2.06768
     85      -0.4034      2.07074
     86      -0.3371      2.01178
     87      -0.2145      1.41905
     88      -0.1667      1.03051
     89       0.0278     -0.03944
     90       0.2054     -0.02568
     91       0.2318     -0.01735
     92       0.3108     -0.00407
     93       1.1087     -0.00000
     94       1.7495     -0.00000
     95       2.0122     -0.00000
     96       2.7950     -0.00000
     97       3.1679     -0.00000
     98       3.5157     -0.00000
     99       3.7219     -0.00000
    100       4.3840     -0.00000
    101       4.6246     -0.00000
    102       5.0895     -0.00000
    103       5.3344      0.00000
    104       5.4856      0.00000


--------------------------------------------------------------------------------------------------------


 soft charge-density along one line, spin component           1
         0         1         2         3         4         5         6         7         8         9
 total charge-density along one line
 
 pseudopotential strength for first ion, spin component:           1
 -6.611  -0.000   0.000  -0.012   0.000  -6.708  -0.000   0.000
 -0.000  -6.495  -0.000  -0.000  -0.012  -0.000  -6.595  -0.000
  0.000  -0.000  -6.488  -0.000   0.000   0.000  -0.000  -6.588
 -0.012  -0.000  -0.000  -6.495  -0.000  -0.011  -0.000  -0.000
  0.000  -0.012   0.000  -0.000  -6.611   0.000  -0.011   0.000
 -6.708  -0.000   0.000  -0.011   0.000  -6.789  -0.000   0.000
 -0.000  -6.595  -0.000  -0.000  -0.011  -0.000  -6.679  -0.000
  0.000  -0.000  -6.588  -0.000   0.000   0.000  -0.000  -6.673
 -0.011  -0.000  -0.000  -6.595  -0.000  -0.011  -0.000  -0.000
  0.000  -0.011   0.000  -0.000  -6.708   0.000  -0.011   0.000
  0.000   0.000  -0.035   0.000   0.000   0.000   0.000  -0.035
  0.000   0.000  -0.052   0.000   0.000   0.000   0.000  -0.051
  0.000  -0.005  -0.000  -0.000   0.000   0.000  -0.005  -0.000
 -0.000   0.000  -0.010   0.000   0.000  -0.000   0.000  -0.010
  0.000  -0.000  -0.000  -0.005   0.000   0.000  -0.000  -0.000
  0.000  -0.005  -0.000  -0.000   0.000   0.000  -0.004  -0.000
 -0.000   0.000  -0.011   0.000   0.000  -0.000   0.000  -0.011
  0.000  -0.000  -0.000  -0.005   0.000   0.000  -0.000  -0.000
 total augmentation occupancy for first ion, spin component:           1
  2.985  -0.000  -0.000  -0.252  -0.000  -1.845   0.000   0.000   0.067   0.000  -0.000   0.000   0.000  -0.000  -0.049  -0.000
 -0.000   3.872  -0.000  -0.000  -0.252   0.000  -2.010   0.000   0.000   0.076  -0.000  -0.000  -0.236   0.000  -0.000   0.010
 -0.000  -0.000   4.065  -0.000   0.000   0.000   0.000  -2.442   0.000  -0.000   0.808  -0.148   0.000  -0.284  -0.000  -0.000
 -0.252  -0.000  -0.000   3.872  -0.000   0.076   0.000   0.000  -2.010   0.000  -0.000  -0.000  -0.000   0.000  -0.236   0.000
 -0.000  -0.252   0.000  -0.000   2.985   0.000   0.067  -0.000   0.000  -1.845   0.000  -0.000  -0.049   0.000   0.000   0.004
 -1.845   0.000   0.000   0.076   0.000   2.339  -0.000  -0.000   0.056  -0.000   0.000   0.000   0.000   0.000   0.048  -0.000
  0.000  -2.010   0.000   0.000   0.067  -0.000   1.987  -0.000  -0.000   0.056  -0.000   0.000   0.231  -0.000   0.000  -0.017
  0.000   0.000  -2.442   0.000  -0.000  -0.000  -0.000   2.588  -0.000   0.000  -0.678   0.096  -0.000   0.347   0.000   0.000
  0.067   0.000   0.000  -2.010   0.000   0.056  -0.000  -0.000   1.987  -0.000  -0.000   0.000   0.000  -0.000   0.231  -0.000
  0.000   0.076  -0.000   0.000  -1.845  -0.000   0.056   0.000  -0.000   2.339  -0.000   0.000   0.048  -0.000   0.000  -0.003
 -0.000  -0.000   0.808  -0.000   0.000   0.000  -0.000  -0.678  -0.000  -0.000   2.280  -0.471   0.000   0.187  -0.000  -0.000
  0.000  -0.000  -0.148  -0.000  -0.000   0.000   0.000   0.096   0.000   0.000  -0.471   0.116   0.000  -0.064   0.000   0.000
  0.000  -0.236   0.000  -0.000  -0.049   0.000   0.231  -0.000   0.000   0.048   0.000   0.000   0.253  -0.000   0.000  -0.015
 -0.000   0.000  -0.284   0.000   0.000   0.000  -0.000   0.347  -0.000  -0.000   0.187  -0.064  -0.000   0.142   0.000  -0.000
 -0.049  -0.000  -0.000  -0.236   0.000   0.048   0.000   0.000   0.231   0.000  -0.000   0.000   0.000   0.000   0.253  -0.000
 -0.000   0.010  -0.000   0.000   0.004  -0.000  -0.017   0.000  -0.000  -0.003  -0.000   0.000  -0.015  -0.000  -0.000   0.001
  0.000  -0.000   0.000  -0.000  -0.000  -0.000   0.000  -0.020  -0.000   0.000  -0.020   0.006   0.000  -0.009  -0.000  -0.000
  0.004   0.000   0.000   0.010  -0.000  -0.003  -0.000   0.000  -0.017  -0.000  -0.000  -0.000  -0.000   0.000  -0.015   0.000


------------------------ aborting loop because EDIFF is reached ----------------------------------------


    CHARGE:  cpu time    0.1886: real time    0.1886
    FORLOC:  cpu time    0.0080: real time    0.0080
    FORNL :  cpu time    0.6658: real time    0.6659
    FORCOR:  cpu time    0.0398: real time    0.0398
    FORHAR:  cpu time    0.0134: real time    0.0134
    MIXING:  cpu time    0.0027: real time    0.0027
    OFIELD:  cpu time    0.0000: real time    0.0000

 VOLUME and BASIS-vectors are now :
 -----------------------------------------------------------------------------
  energy-cutoff  :      350.00
  volume of cell :      742.39
      direct lattice vectors                 reciprocal lattice vectors
     5.643844236  0.000000000  0.000000000     0.177184195 -0.102297343  0.000000000
     2.821922118  4.887712483  0.000000000     0.000000000  0.204594686  0.000000000
     0.000000000  0.000000000 26.912269283     0.000000000  0.000000000  0.037157773

  length of vectors
     5.643844236  5.643844236 26.912269283     0.204594686  0.204594686  0.037157773


 FORCES acting on ions
    electron-ion (+dipol)            ewald-force                    non-local-force                 convergence-correction
 -----------------------------------------------------------------------------------------------
   0.381E-03 0.569E-02 0.268E+04   0.127E-03 0.812E-04 -.268E+04   0.391E-04 0.145E-03 -.132E+01   -.557E-03 -.600E-02 0.112E+00
   -.428E-03 -.487E-01 0.268E+04   -.124E-03 -.273E-02 -.268E+04   -.134E-05 -.513E-03 -.124E+01   0.571E-03 -.930E-02 0.113E+00
   -.470E-01 0.212E-01 0.268E+04   -.243E-02 0.125E-02 -.268E+04   -.703E-03 0.208E-03 -.124E+01   -.292E-02 0.797E-02 0.117E+00
   0.470E-01 0.217E-01 0.268E+04   0.243E-02 0.140E-02 -.268E+04   0.660E-03 0.212E-03 -.124E+01   0.289E-02 0.733E-02 0.117E+00
   0.186E+01 0.107E+01 0.102E+04   -.188E+01 -.109E+01 -.102E+04   0.115E-01 0.657E-02 -.178E+00   0.184E-01 0.106E-01 0.431E+00
   -.186E+01 0.107E+01 0.102E+04   0.188E+01 -.109E+01 -.102E+04   -.114E-01 0.660E-02 -.178E+00   -.184E-01 0.101E-01 0.431E+00
   -.154E-02 -.214E+01 0.102E+04   0.196E-02 0.217E+01 -.102E+04   0.448E-04 -.131E-01 -.179E+00   -.409E-03 -.210E-01 0.431E+00
   0.742E-03 0.303E-03 0.102E+04   -.117E-02 -.608E-03 -.102E+04   0.346E-04 0.145E-04 -.481E+00   0.430E-03 0.318E-03 0.414E+00
   0.658E-02 0.260E+00 -.651E+03   -.640E-02 -.426E-01 0.650E+03   -.790E-04 -.242E+00 0.179E+00   -.237E-03 0.246E-01 0.193E+00
   -.490E-02 -.758E-02 -.645E+03   0.472E-02 0.191E-02 0.643E+03   -.676E-04 -.766E-04 0.108E+01   0.271E-03 0.589E-02 0.208E+00
   -.231E+00 -.129E+00 -.651E+03   0.376E-01 0.225E-01 0.650E+03   0.209E+00 0.121E+00 0.179E+00   -.160E-01 -.146E-01 0.188E+00
   0.232E+00 -.122E+00 -.651E+03   -.393E-01 0.162E-01 0.650E+03   -.209E+00 0.121E+00 0.179E+00   0.160E-01 -.149E-01 0.188E+00
   0.938E-02 0.895E-02 -.228E+04   -.914E-02 -.504E-02 0.228E+04   -.442E-04 0.664E-04 0.159E+01   -.255E-03 -.406E-02 -.413E-01
   -.120E-01 0.897E+02 -.230E+04   0.116E-01 -.899E+02 0.230E+04   0.527E-04 0.219E+00 -.793E+00   0.232E-03 -.764E-03 -.535E-01
   0.777E+02 -.449E+02 -.230E+04   -.779E+02 0.450E+02 0.230E+04   0.190E+00 -.110E+00 -.794E+00   0.219E-02 0.218E-02 -.508E-01
   -.777E+02 -.449E+02 -.230E+04   0.779E+02 0.450E+02 0.230E+04   -.189E+00 -.109E+00 -.794E+00   -.218E-02 0.189E-02 -.507E-01
   -.259E-01 -.144E-01 -.105E+04   0.278E-01 0.161E-01 0.104E+04   -.198E-02 -.109E-02 0.732E+01   -.363E-03 -.741E-03 -.492E-01
   0.324E-01 0.191E-01 -.192E+04   -.417E-01 -.242E-01 0.198E+04   0.941E-02 0.546E-02 -.566E+02   -.131E-03 -.337E-03 -.102E+00
 -----------------------------------------------------------------------------------------------
   -.807E-02 -.420E-02 0.519E+02   0.274E-13 -.283E-13 -.182E-11   0.779E-02 0.461E-02 -.545E+02   -.457E-03 -.810E-03 0.259E+01
 
 
 POSITION                                       TOTAL-FORCE (eV/Angst)
 -----------------------------------------------------------------------------------
      0.00000      0.00000     10.00000         0.000031     -0.000056     -0.084804
      2.82192      0.00000     10.00000         0.000059     -0.061245     -0.165255
      1.41096      2.44386     10.00000        -0.052981      0.030698     -0.164301
      4.23288      2.44386     10.00000         0.053043      0.030669     -0.164333
      1.41096      0.81462     12.30409         0.003978      0.002274      0.070203
      4.23288      0.81462     12.30409        -0.003843      0.002305      0.070203
      2.82192      3.25847     12.30409         0.000095     -0.004496      0.070057
      5.64384      3.25847     12.30409         0.000073      0.000049      0.383108
      5.64386      1.64541     14.61278        -0.000099      0.000171     -0.000435
      2.82194      1.62925     14.59576         0.000059      0.000159     -0.007195
      7.04084      4.06503     14.61275        -0.000006     -0.000070     -0.000931
      4.24690      4.06502     14.61277        -0.000022     -0.000180     -0.000868
      8.46576      4.88771     16.83962        -0.000019     -0.000064     -0.000388
      5.64383      4.87753     17.02069        -0.000075     -0.009578     -0.004099
      7.04597      2.44893     17.02069        -0.008334      0.004704     -0.003861
      4.24162      2.44890     17.02087         0.008343      0.004790     -0.003762
      2.82176      1.62915     18.36159        -0.000388     -0.000182     -0.007087
      2.82157      1.62903     19.56071         0.000085      0.000050      0.013749
 -----------------------------------------------------------------------------------
    total drift:                               -0.000743     -0.000399     -0.004747


--------------------------------------------------------------------------------------------------------



  FREE ENERGIE OF THE ION-ELECTRON SYSTEM (eV)
  ---------------------------------------------------
  free  energy   TOTEN  =       -98.77270301 eV

  energy  without entropy=      -98.75462893  energy(sigma->0) =      -98.76667832
 


--------------------------------------------------------------------------------------------------------


    POTLOK:  cpu time    0.0361: real time    0.0361


--------------------------------------------------------------------------------------------------------


     LOOP+:  cpu time   63.4355: real time   63.5705
    4ORBIT:  cpu time    0.0000: real time    0.0000

volume of typ            1:    30.5 %

volume of typ            2:     0.3 %

volume of typ            3:     0.3 %
 
total charge     
 
# of ion       s       p       d       tot
------------------------------------------
    1        0.568   0.387   7.868   8.822
    2        0.569   0.386   7.869   8.823
    3        0.569   0.386   7.868   8.823
    4        0.569   0.386   7.868   8.823
    5        0.553   0.493   7.883   8.929
    6        0.554   0.493   7.883   8.929
    7        0.553   0.493   7.882   8.928
    8        0.561   0.500   7.864   8.925
    9        0.558   0.488   7.879   8.926
   10        0.549   0.470   7.878   8.898
   11        0.558   0.488   7.879   8.925
   12        0.558   0.488   7.879   8.925
   13        0.570   0.400   7.886   8.856
   14        0.567   0.459   7.916   8.943
   15        0.567   0.459   7.916   8.943
   16        0.567   0.459   7.916   8.943
   17        0.778   1.426   0.089   2.293
   18        1.439   3.178   0.040   4.656
--------------------------------------------------
tot          11.21   11.84  126.26  149.31
 

 total amount of memory used by VASP MPI-rank0    54955. kBytes
=======================================================================

   base      :      30000. kBytes
   nonlr-proj:       2172. kBytes
   fftplans  :       2593. kBytes
   grid      :       4625. kBytes
   one-center:         77. kBytes
   wavefun   :      15488. kBytes
 
  
  
 General timing and accounting informations for this job:
 ========================================================
  
                  Total CPU time used (sec):       66.117
                            User time (sec):       64.943
                          System time (sec):        1.174
                         Elapsed time (sec):       68.493
  
                   Maximum memory used (kb):      100520.
                   Average memory used (kb):           0.
  
                          Minor page faults:        37171
                          Major page faults:           90
                 Voluntary context switches:          976
