PROCAR new format
# of k-points:   13         # of bands:  104         # of ions:   18

 k-point     1 :    0.00000000 0.00000000 0.00000000     weight = 0.04000000

band     1 # energy  -22.39879376 # occ.  2.00000000
 
ion      s      p      d    tot
    1  0.000  0.000  0.000  0.000
    2  0.000  0.000  0.000  0.000
    3  0.000  0.000  0.000  0.000
    4  0.000  0.000  0.000  0.000
    5  0.000  0.000  0.000  0.000
    6  0.000  0.000  0.000  0.000
    7  0.000  0.000  0.000  0.000
    8  0.000  0.000  0.000  0.000
    9  0.000  0.000  0.000  0.000
   10  0.000  0.000  0.000  0.000
   11  0.000  0.000  0.000  0.000
   12  0.000  0.000  0.000  0.000
   13  0.000  0.000  0.000  0.000
   14  0.000  0.000  0.001  0.001
   15  0.000  0.000  0.001  0.001
   16  0.000  0.000  0.001  0.001
   17  0.134  0.088  0.013  0.234
   18  0.550  0.075  0.005  0.629
tot    0.684  0.164  0.019  0.867
 
band     2 # energy  -10.87538701 # occ.  2.00000000
 
ion      s      p      d    tot
    1  0.000  0.000  0.000  0.000
    2  0.000  0.000  0.000  0.000
    3  0.000  0.000  0.000  0.000
    4  0.000  0.000  0.000  0.000
    5  0.000  0.000  0.000  0.000
    6  0.000  0.000  0.000  0.000
    7  0.000  0.000  0.000  0.000
    8  0.000  0.000  0.000  0.000
    9  0.003  0.000  0.000  0.004
   10  0.003  0.000  0.000  0.003
   11  0.003  0.000  0.000  0.004
   12  0.003  0.000  0.000  0.004
   13  0.006  0.000  0.001  0.007
   14  0.059  0.014  0.057  0.130
   15  0.059  0.014  0.057  0.130
   16  0.059  0.014  0.057  0.130
   17  0.190  0.057  0.000  0.247
   18  0.064  0.018  0.000  0.082
tot    0.454  0.118  0.174  0.745
 
band     3 # energy   -9.11108871 # occ.  2.00000000
 
ion      s      p      d    tot
    1  0.022  0.002  0.000  0.024
    2  0.022  0.002  0.000  0.024
    3  0.022  0.002  0.000  0.024
    4  0.022  0.002  0.000  0.024
    5  0.078  0.000  0.001  0.079
    6  0.078  0.000  0.001  0.079
    7  0.078  0.000  0.001  0.079
    8  0.081  0.000  0.001  0.082
    9  0.060  0.001  0.001  0.062
   10  0.058  0.001  0.001  0.060
   11  0.060  0.001  0.001  0.062
   12  0.060  0.001  0.001  0.062
   13  0.011  0.002  0.000  0.013
   14  0.002  0.003  0.004  0.009
   15  0.002  0.003  0.004  0.009
   16  0.002  0.003  0.004  0.009
   17  0.009  0.001  0.000  0.010
   18  0.003  0.003  0.000  0.007
tot    0.667  0.030  0.018  0.715
 
band     4 # energy   -7.80128143 # occ.  2.00000000
 
ion      s      p      d    tot
    1  0.045  0.001  0.004  0.050
    2  0.045  0.001  0.004  0.050
    3  0.045  0.001  0.004  0.050
    4  0.045  0.001  0.004  0.050
    5  0.021  0.006  0.005  0.031
    6  0.021  0.006  0.005  0.031
    7  0.021  0.006  0.005  0.031
    8  0.018  0.006  0.006  0.030
    9  0.045  0.003  0.010  0.059
   10  0.041  0.003  0.011  0.055
   11  0.045  0.003  0.010  0.059
   12  0.045  0.003  0.010  0.059
   13  0.042  0.003  0.000  0.045
   14  0.017  0.004  0.007  0.028
   15  0.017  0.004  0.007  0.028
   16  0.017  0.004  0.007  0.028
   17  0.014  0.000  0.000  0.014
   18  0.010  0.022  0.000  0.032
tot    0.554  0.077  0.097  0.728
 
band     5 # energy   -6.99651835 # occ.  2.00000000
 
ion      s      p      d    tot
    1  0.011  0.000  0.003  0.014
    2  0.009  0.000  0.004  0.013
    3  0.009  0.000  0.004  0.013
    4  0.009  0.000  0.004  0.013
    5  0.000  0.002  0.000  0.002
    6  0.000  0.002  0.000  0.002
    7  0.000  0.002  0.000  0.002
    8  0.001  0.002  0.000  0.003
    9  0.011  0.001  0.011  0.023
   10  0.006  0.001  0.017  0.024
   11  0.011  0.001  0.011  0.023
   12  0.011  0.001  0.011  0.023
   13  0.010  0.000  0.015  0.026
   14  0.026  0.000  0.038  0.064
   15  0.026  0.000  0.038  0.064
   16  0.026  0.000  0.038  0.064
   17  0.027  0.060  0.000  0.088
   18  0.071  0.255  0.003  0.330
tot    0.266  0.326  0.200  0.793
 
band     6 # energy   -6.78485314 # occ.  2.00000000
 
ion      s      p      d    tot
    1  0.045  0.000  0.044  0.089
    2  0.049  0.000  0.042  0.091
    3  0.049  0.000  0.042  0.091
    4  0.049  0.000  0.042  0.091
    5  0.028  0.001  0.058  0.087
    6  0.028  0.001  0.058  0.087
    7  0.028  0.001  0.058  0.087
    8  0.019  0.001  0.067  0.088
    9  0.004  0.001  0.015  0.020
   10  0.001  0.001  0.017  0.020
   11  0.004  0.001  0.015  0.020
   12  0.004  0.001  0.015  0.020
   13  0.002  0.000  0.001  0.003
   14  0.000  0.000  0.003  0.003
   15  0.000  0.000  0.003  0.003
   16  0.000  0.000  0.003  0.003
   17  0.000  0.003  0.000  0.003
   18  0.002  0.009  0.000  0.011
tot    0.315  0.024  0.482  0.820
 
band     7 # energy   -6.74965516 # occ.  2.00000000
 
ion      s      p      d    tot
    1  0.000  0.000  0.003  0.003
    2  0.001  0.000  0.002  0.003
    3  0.000  0.000  0.002  0.003
    4  0.002  0.001  0.001  0.004
    5  0.013  0.000  0.005  0.018
    6  0.003  0.000  0.017  0.020
    7  0.004  0.000  0.016  0.020
    8  0.000  0.000  0.021  0.022
    9  0.007  0.000  0.028  0.036
   10  0.000  0.000  0.029  0.029
   11  0.026  0.000  0.014  0.040
   12  0.006  0.000  0.029  0.035
   13  0.000  0.000  0.047  0.047
   14  0.014  0.001  0.087  0.102
   15  0.011  0.001  0.091  0.103
   16  0.050  0.002  0.034  0.086
   17  0.000  0.097  0.000  0.098
   18  0.000  0.095  0.002  0.097
tot    0.137  0.198  0.429  0.764
 
band     8 # energy   -6.74955105 # occ.  2.00000000
 
ion      s      p      d    tot
    1  0.000  0.000  0.003  0.003
    2  0.002  0.000  0.002  0.003
    3  0.002  0.000  0.001  0.004
    4  0.000  0.000  0.003  0.003
    5  0.000  0.000  0.020  0.021
    6  0.010  0.000  0.008  0.018
    7  0.009  0.000  0.009  0.019
    8  0.000  0.000  0.021  0.022
    9  0.019  0.000  0.019  0.039
   10  0.000  0.000  0.029  0.029
   11  0.000  0.000  0.034  0.034
   12  0.020  0.000  0.018  0.039
   13  0.000  0.000  0.047  0.047
   14  0.036  0.001  0.054  0.092
   15  0.039  0.001  0.050  0.091
   16  0.000  0.000  0.108  0.108
   17  0.000  0.097  0.000  0.098
   18  0.000  0.095  0.002  0.097
tot    0.137  0.198  0.429  0.764
 
band     9 # energy   -6.50614389 # occ.  2.00000000
 
ion      s      p      d    tot
    1  0.005  0.001  0.003  0.009
    2  0.001  0.001  0.010  0.012
    3  0.001  0.001  0.010  0.012
    4  0.001  0.001  0.010  0.012
    5  0.004  0.000  0.069  0.074
    6  0.004  0.000  0.069  0.074
    7  0.004  0.000  0.069  0.074
    8  0.060  0.000  0.001  0.060
    9  0.000  0.000  0.070  0.070
   10  0.045  0.002  0.000  0.047
   11  0.000  0.000  0.070  0.070
   12  0.000  0.000  0.069  0.070
   13  0.074  0.001  0.006  0.081
   14  0.003  0.001  0.047  0.051
   15  0.003  0.001  0.047  0.051
   16  0.003  0.001  0.047  0.051
   17  0.000  0.008  0.000  0.008
   18  0.004  0.017  0.000  0.021
tot    0.213  0.036  0.596  0.845
 
band    10 # energy   -6.43734894 # occ.  2.00000000
 
ion      s      p      d    tot
    1  0.012  0.001  0.000  0.013
    2  0.000  0.000  0.010  0.010
    3  0.000  0.000  0.010  0.010
    4  0.000  0.000  0.010  0.010
    5  0.001  0.000  0.030  0.031
    6  0.001  0.000  0.030  0.031
    7  0.001  0.000  0.030  0.031
    8  0.011  0.001  0.013  0.025
    9  0.012  0.001  0.099  0.113
   10  0.036  0.000  0.004  0.041
   11  0.012  0.001  0.099  0.113
   12  0.012  0.001  0.099  0.113
   13  0.021  0.001  0.045  0.068
   14  0.008  0.000  0.044  0.053
   15  0.008  0.000  0.044  0.053
   16  0.008  0.000  0.044  0.053
   17  0.000  0.018  0.000  0.019
   18  0.009  0.045  0.001  0.055
tot    0.153  0.074  0.613  0.840
 
band    11 # energy   -6.31041137 # occ.  2.00000000
 
ion      s      p      d    tot
    1  0.000  0.002  0.022  0.023
    2  0.000  0.000  0.006  0.006
    3  0.000  0.001  0.018  0.019
    4  0.000  0.001  0.017  0.018
    5  0.012  0.000  0.112  0.124
    6  0.010  0.000  0.119  0.129
    7  0.043  0.000  0.020  0.064
    8  0.000  0.000  0.152  0.153
    9  0.010  0.000  0.015  0.026
   10  0.000  0.001  0.082  0.083
   11  0.003  0.001  0.066  0.070
   12  0.002  0.001  0.070  0.073
   13  0.000  0.001  0.014  0.015
   14  0.000  0.000  0.005  0.006
   15  0.000  0.000  0.010  0.010
   16  0.000  0.000  0.009  0.010
   17  0.000  0.004  0.000  0.004
   18  0.000  0.005  0.000  0.005
tot    0.081  0.018  0.739  0.838
 
band    12 # energy   -6.31037633 # occ.  2.00000000
 
ion      s      p      d    tot
    1  0.000  0.002  0.022  0.023
    2  0.000  0.002  0.022  0.023
    3  0.000  0.001  0.009  0.010
    4  0.000  0.001  0.010  0.011
    5  0.031  0.000  0.055  0.087
    6  0.034  0.000  0.048  0.082
    7  0.000  0.000  0.147  0.148
    8  0.000  0.000  0.152  0.153
    9  0.000  0.001  0.086  0.087
   10  0.000  0.001  0.082  0.083
   11  0.007  0.001  0.035  0.043
   12  0.008  0.001  0.031  0.039
   13  0.000  0.001  0.014  0.015
   14  0.000  0.000  0.011  0.011
   15  0.000  0.000  0.007  0.007
   16  0.000  0.000  0.007  0.007
   17  0.000  0.004  0.000  0.004
   18  0.000  0.005  0.000  0.005
tot    0.081  0.018  0.739  0.838
 
band    13 # energy   -6.28050762 # occ.  2.00000000
 
ion      s      p      d    tot
    1  0.000  0.000  0.020  0.021
    2  0.005  0.001  0.015  0.022
    3  0.003  0.001  0.018  0.021
    4  0.015  0.003  0.005  0.023
    5  0.032  0.000  0.016  0.048
    6  0.006  0.000  0.064  0.070
    7  0.011  0.000  0.055  0.066
    8  0.000  0.000  0.080  0.080
    9  0.013  0.001  0.055  0.070
   10  0.000  0.001  0.079  0.080
   11  0.038  0.003  0.009  0.050
   12  0.007  0.001  0.067  0.075
   13  0.000  0.001  0.016  0.018
   14  0.003  0.003  0.026  0.032
   15  0.001  0.002  0.031  0.034
   16  0.008  0.004  0.009  0.021
   17  0.000  0.040  0.000  0.040
   18  0.000  0.048  0.001  0.049
tot    0.142  0.110  0.567  0.819
 
band    14 # energy   -6.28044841 # occ.  2.00000000
 
ion      s      p      d    tot
    1  0.000  0.000  0.020  0.021
    2  0.010  0.002  0.010  0.022
    3  0.013  0.002  0.008  0.023
    4  0.000  0.000  0.020  0.021
    5  0.000  0.000  0.074  0.074
    6  0.027  0.000  0.025  0.052
    7  0.022  0.000  0.035  0.057
    8  0.000  0.000  0.080  0.080
    9  0.025  0.002  0.032  0.060
   10  0.000  0.001  0.079  0.080
   11  0.000  0.001  0.079  0.079
   12  0.032  0.003  0.021  0.055
   13  0.000  0.001  0.016  0.018
   14  0.005  0.003  0.017  0.026
   15  0.007  0.004  0.013  0.024
   16  0.000  0.002  0.035  0.037
   17  0.000  0.040  0.000  0.040
   18  0.000  0.048  0.001  0.049
tot    0.142  0.110  0.567  0.819
 
band    15 # energy   -6.17988868 # occ.  2.00000000
 
ion      s      p      d    tot
    1  0.000  0.000  0.005  0.005
    2  0.000  0.001  0.021  0.023
    3  0.000  0.001  0.021  0.023
    4  0.000  0.001  0.021  0.023
    5  0.004  0.000  0.122  0.126
    6  0.004  0.000  0.122  0.126
    7  0.004  0.000  0.122  0.126
    8  0.036  0.000  0.007  0.043
    9  0.000  0.002  0.046  0.048
   10  0.019  0.000  0.019  0.038
   11  0.000  0.002  0.046  0.048
   12  0.000  0.002  0.046  0.048
   13  0.032  0.000  0.008  0.040
   14  0.003  0.002  0.026  0.031
   15  0.003  0.002  0.026  0.031
   16  0.003  0.002  0.026  0.031
   17  0.000  0.010  0.000  0.011
   18  0.003  0.018  0.000  0.021
tot    0.110  0.044  0.688  0.842
 
band    16 # energy   -5.88044422 # occ.  2.00000000
 
ion      s      p      d    tot
    1  0.010  0.003  0.011  0.024
    2  0.001  0.001  0.014  0.017
    3  0.001  0.001  0.014  0.017
    4  0.001  0.001  0.014  0.017
    5  0.000  0.000  0.106  0.107
    6  0.000  0.000  0.106  0.107
    7  0.000  0.000  0.106  0.107
    8  0.001  0.002  0.051  0.053
    9  0.000  0.000  0.099  0.100
   10  0.000  0.002  0.062  0.064
   11  0.000  0.000  0.099  0.100
   12  0.000  0.000  0.099  0.100
   13  0.001  0.003  0.025  0.029
   14  0.000  0.001  0.014  0.016
   15  0.000  0.001  0.014  0.016
   16  0.000  0.001  0.014  0.016
   17  0.000  0.000  0.000  0.000
   18  0.000  0.000  0.000  0.000
tot    0.016  0.019  0.853  0.888
 
band    17 # energy   -5.83264740 # occ.  2.00000000
 
ion      s      p      d    tot
    1  0.000  0.001  0.014  0.015
    2  0.003  0.002  0.013  0.019
    3  0.003  0.002  0.013  0.018
    4  0.000  0.001  0.013  0.015
    5  0.000  0.000  0.098  0.098
    6  0.001  0.001  0.079  0.080
    7  0.001  0.001  0.077  0.078
    8  0.000  0.000  0.106  0.106
    9  0.000  0.001  0.084  0.085
   10  0.000  0.000  0.115  0.115
   11  0.000  0.000  0.117  0.117
   12  0.000  0.001  0.088  0.089
   13  0.000  0.001  0.011  0.012
   14  0.001  0.001  0.015  0.017
   15  0.001  0.001  0.014  0.016
   16  0.000  0.000  0.011  0.011
   17  0.000  0.000  0.000  0.000
   18  0.000  0.000  0.000  0.000
tot    0.010  0.014  0.868  0.892
 
band    18 # energy   -5.83261156 # occ.  2.00000000
 
ion      s      p      d    tot
    1  0.000  0.001  0.014  0.015
    2  0.001  0.001  0.013  0.016
    3  0.001  0.001  0.013  0.016
    4  0.004  0.002  0.013  0.020
    5  0.001  0.001  0.071  0.073
    6  0.000  0.000  0.090  0.091
    7  0.000  0.000  0.092  0.093
    8  0.000  0.000  0.106  0.106
    9  0.000  0.000  0.109  0.109
   10  0.000  0.000  0.115  0.115
   11  0.000  0.001  0.076  0.077
   12  0.000  0.000  0.105  0.106
   13  0.000  0.001  0.011  0.012
   14  0.000  0.001  0.012  0.013
   15  0.000  0.001  0.012  0.013
   16  0.001  0.002  0.016  0.019
   17  0.000  0.000  0.000  0.000
   18  0.000  0.000  0.000  0.000
tot    0.010  0.014  0.868  0.892
 
band    19 # energy   -5.67378997 # occ.  2.00000000
 
ion      s      p      d    tot
    1  0.000  0.000  0.187  0.187
    2  0.000  0.000  0.186  0.187
    3  0.033  0.000  0.075  0.108
    4  0.033  0.000  0.075  0.108
    5  0.000  0.002  0.022  0.024
    6  0.000  0.002  0.022  0.024
    7  0.000  0.002  0.013  0.016
    8  0.000  0.002  0.014  0.016
    9  0.000  0.000  0.037  0.037
   10  0.000  0.000  0.032  0.032
   11  0.006  0.000  0.013  0.018
   12  0.006  0.000  0.013  0.018
   13  0.000  0.001  0.029  0.029
   14  0.000  0.000  0.024  0.025
   15  0.002  0.000  0.013  0.015
   16  0.002  0.000  0.013  0.015
   17  0.000  0.001  0.000  0.001
   18  0.000  0.003  0.000  0.003
tot    0.081  0.014  0.768  0.863
 
band    20 # energy   -5.67371669 # occ.  2.00000000
 
ion      s      p      d    tot
    1  0.000  0.000  0.187  0.187
    2  0.044  0.000  0.038  0.082
    3  0.011  0.000  0.149  0.160
    4  0.011  0.000  0.149  0.160
    5  0.000  0.002  0.016  0.018
    6  0.000  0.002  0.016  0.018
    7  0.000  0.002  0.024  0.027
    8  0.000  0.002  0.014  0.016
    9  0.007  0.000  0.005  0.012
   10  0.000  0.000  0.032  0.032
   11  0.002  0.000  0.029  0.031
   12  0.002  0.000  0.029  0.031
   13  0.000  0.001  0.029  0.029
   14  0.002  0.000  0.010  0.012
   15  0.001  0.000  0.021  0.022
   16  0.001  0.000  0.021  0.022
   17  0.000  0.001  0.000  0.001
   18  0.000  0.003  0.000  0.003
tot    0.081  0.014  0.768  0.863
 
band    21 # energy   -5.65021067 # occ.  2.00000000
 
ion      s      p      d    tot
    1  0.056  0.000  0.020  0.077
    2  0.006  0.000  0.186  0.192
    3  0.006  0.000  0.187  0.193
    4  0.006  0.000  0.187  0.193
    5  0.000  0.003  0.005  0.008
    6  0.000  0.003  0.005  0.008
    7  0.000  0.003  0.005  0.008
    8  0.004  0.003  0.030  0.036
    9  0.001  0.000  0.029  0.030
   10  0.015  0.000  0.000  0.015
   11  0.001  0.000  0.029  0.030
   12  0.001  0.000  0.029  0.030
   13  0.003  0.000  0.000  0.004
   14  0.000  0.001  0.012  0.013
   15  0.000  0.001  0.012  0.013
   16  0.000  0.001  0.012  0.013
   17  0.000  0.000  0.000  0.000
   18  0.000  0.000  0.000  0.000
tot    0.101  0.016  0.747  0.864
 
band    22 # energy   -5.38700171 # occ.  2.00000000
 
ion      s      p      d    tot
    1  0.000  0.000  0.028  0.028
    2  0.004  0.000  0.012  0.016
    3  0.005  0.000  0.009  0.014
    4  0.000  0.000  0.027  0.028
    5  0.000  0.000  0.010  0.010
    6  0.002  0.002  0.003  0.007
    7  0.002  0.001  0.004  0.007
    8  0.000  0.000  0.010  0.010
    9  0.005  0.001  0.008  0.014
   10  0.000  0.001  0.015  0.017
   11  0.000  0.001  0.011  0.012
   12  0.006  0.001  0.007  0.014
   13  0.000  0.000  0.160  0.160
   14  0.012  0.005  0.088  0.105
   15  0.014  0.006  0.084  0.104
   16  0.000  0.001  0.112  0.113
   17  0.000  0.048  0.002  0.049
   18  0.000  0.109  0.001  0.110
tot    0.050  0.178  0.589  0.817
 
band    23 # energy   -5.38697420 # occ.  2.00000000
 
ion      s      p      d    tot
    1  0.000  0.000  0.028  0.028
    2  0.002  0.000  0.020  0.022
    3  0.001  0.000  0.023  0.025
    4  0.006  0.000  0.005  0.010
    5  0.003  0.002  0.001  0.006
    6  0.001  0.001  0.008  0.009
    7  0.001  0.001  0.007  0.009
    8  0.000  0.000  0.010  0.010
    9  0.002  0.001  0.009  0.013
   10  0.000  0.001  0.015  0.017
   11  0.008  0.001  0.006  0.015
   12  0.001  0.001  0.010  0.013
   13  0.000  0.000  0.160  0.160
   14  0.005  0.003  0.101  0.109
   15  0.003  0.002  0.105  0.111
   16  0.017  0.007  0.077  0.101
   17  0.000  0.048  0.002  0.049
   18  0.000  0.109  0.001  0.110
tot    0.050  0.178  0.589  0.817
 
band    24 # energy   -5.05253083 # occ.  2.00000000
 
ion      s      p      d    tot
    1  0.001  0.001  0.016  0.018
    2  0.000  0.001  0.016  0.017
    3  0.000  0.001  0.016  0.017
    4  0.000  0.001  0.016  0.017
    5  0.000  0.001  0.030  0.031
    6  0.000  0.001  0.030  0.031
    7  0.000  0.001  0.030  0.031
    8  0.000  0.000  0.012  0.012
    9  0.000  0.001  0.007  0.008
   10  0.001  0.010  0.035  0.047
   11  0.000  0.001  0.007  0.008
   12  0.000  0.001  0.007  0.008
   13  0.004  0.000  0.007  0.011
   14  0.004  0.001  0.173  0.178
   15  0.004  0.001  0.173  0.178
   16  0.004  0.001  0.173  0.178
   17  0.001  0.024  0.002  0.027
   18  0.003  0.050  0.000  0.053
tot    0.022  0.096  0.749  0.867
 
band    25 # energy   -4.78550300 # occ.  2.00000000
 
ion      s      p      d    tot
    1  0.000  0.002  0.081  0.083
    2  0.000  0.002  0.054  0.057
    3  0.001  0.002  0.029  0.032
    4  0.000  0.002  0.075  0.077
    5  0.000  0.005  0.041  0.045
    6  0.002  0.006  0.016  0.024
    7  0.001  0.005  0.030  0.036
    8  0.000  0.005  0.040  0.045
    9  0.001  0.005  0.038  0.044
   10  0.000  0.004  0.043  0.047
   11  0.000  0.004  0.052  0.056
   12  0.002  0.005  0.022  0.029
   13  0.000  0.004  0.088  0.092
   14  0.001  0.001  0.055  0.057
   15  0.002  0.001  0.036  0.038
   16  0.000  0.002  0.071  0.073
   17  0.000  0.003  0.000  0.003
   18  0.000  0.013  0.000  0.013
tot    0.009  0.071  0.772  0.852
 
band    26 # energy   -4.78547124 # occ.  2.00000000
 
ion      s      p      d    tot
    1  0.000  0.002  0.081  0.083
    2  0.000  0.002  0.051  0.054
    3  0.000  0.002  0.077  0.079
    4  0.001  0.002  0.031  0.033
    5  0.002  0.006  0.017  0.025
    6  0.000  0.004  0.041  0.046
    7  0.001  0.005  0.028  0.034
    8  0.000  0.005  0.040  0.045
    9  0.001  0.005  0.036  0.042
   10  0.000  0.004  0.043  0.047
   11  0.002  0.005  0.023  0.030
   12  0.000  0.004  0.052  0.057
   13  0.000  0.004  0.088  0.092
   14  0.001  0.001  0.053  0.055
   15  0.000  0.002  0.072  0.074
   16  0.002  0.001  0.037  0.039
   17  0.000  0.003  0.000  0.003
   18  0.000  0.013  0.000  0.013
tot    0.009  0.071  0.772  0.852
 
band    27 # energy   -4.61678394 # occ.  2.00000000
 
ion      s      p      d    tot
    1  0.000  0.000  0.005  0.005
    2  0.000  0.002  0.082  0.084
    3  0.000  0.002  0.082  0.084
    4  0.000  0.002  0.082  0.084
    5  0.001  0.006  0.019  0.026
    6  0.001  0.006  0.019  0.026
    7  0.001  0.006  0.019  0.026
    8  0.003  0.010  0.003  0.016
    9  0.000  0.003  0.110  0.113
   10  0.000  0.000  0.021  0.021
   11  0.000  0.003  0.110  0.113
   12  0.000  0.003  0.110  0.113
   13  0.006  0.003  0.033  0.042
   14  0.004  0.010  0.003  0.018
   15  0.004  0.010  0.003  0.018
   16  0.004  0.010  0.003  0.018
   17  0.004  0.016  0.000  0.020
   18  0.001  0.016  0.000  0.017
tot    0.029  0.107  0.706  0.841
 
band    28 # energy   -3.83411066 # occ.  2.00000000
 
ion      s      p      d    tot
    1  0.000  0.000  0.082  0.083
    2  0.000  0.000  0.077  0.078
    3  0.000  0.000  0.055  0.056
    4  0.000  0.001  0.026  0.027
    5  0.001  0.009  0.008  0.017
    6  0.000  0.005  0.014  0.019
    7  0.000  0.002  0.018  0.020
    8  0.000  0.001  0.011  0.012
    9  0.000  0.002  0.042  0.045
   10  0.000  0.002  0.052  0.053
   11  0.002  0.008  0.037  0.047
   12  0.001  0.005  0.040  0.045
   13  0.000  0.002  0.122  0.124
   14  0.000  0.001  0.111  0.111
   15  0.000  0.001  0.075  0.076
   16  0.000  0.002  0.028  0.031
   17  0.000  0.002  0.000  0.003
   18  0.000  0.020  0.000  0.020
tot    0.004  0.064  0.798  0.866
 
band    29 # energy   -3.83406788 # occ.  2.00000000
 
ion      s      p      d    tot
    1  0.000  0.000  0.082  0.083
    2  0.000  0.001  0.028  0.029
    3  0.000  0.001  0.051  0.051
    4  0.000  0.000  0.080  0.080
    5  0.000  0.002  0.019  0.021
    6  0.000  0.006  0.013  0.019
    7  0.001  0.009  0.008  0.018
    8  0.000  0.001  0.011  0.012
    9  0.002  0.008  0.037  0.046
   10  0.000  0.002  0.052  0.053
   11  0.000  0.002  0.042  0.044
   12  0.001  0.005  0.039  0.046
   13  0.000  0.002  0.122  0.124
   14  0.000  0.002  0.032  0.034
   15  0.000  0.001  0.068  0.069
   16  0.000  0.000  0.114  0.115
   17  0.000  0.002  0.000  0.003
   18  0.000  0.020  0.000  0.020
tot    0.004  0.064  0.798  0.866
 
band    30 # energy   -3.77618504 # occ.  2.00000000
 
ion      s      p      d    tot
    1  0.000  0.001  0.021  0.022
    2  0.000  0.001  0.100  0.101
    3  0.000  0.001  0.100  0.101
    4  0.000  0.001  0.100  0.101
    5  0.000  0.001  0.089  0.090
    6  0.000  0.001  0.089  0.090
    7  0.000  0.001  0.089  0.090
    8  0.002  0.004  0.101  0.107
    9  0.000  0.001  0.018  0.020
   10  0.001  0.002  0.093  0.096
   11  0.000  0.001  0.018  0.020
   12  0.000  0.001  0.018  0.020
   13  0.000  0.000  0.005  0.005
   14  0.000  0.001  0.012  0.013
   15  0.000  0.001  0.012  0.013
   16  0.000  0.001  0.012  0.013
   17  0.000  0.000  0.000  0.000
   18  0.000  0.000  0.000  0.000
tot    0.004  0.020  0.880  0.904
 
band    31 # energy   -3.73964036 # occ.  2.00000000
 
ion      s      p      d    tot
    1  0.000  0.000  0.064  0.065
    2  0.000  0.000  0.053  0.053
    3  0.000  0.001  0.025  0.026
    4  0.000  0.000  0.054  0.054
    5  0.000  0.001  0.086  0.087
    6  0.001  0.000  0.108  0.109
    7  0.000  0.001  0.087  0.088
    8  0.000  0.001  0.080  0.081
    9  0.000  0.000  0.068  0.068
   10  0.000  0.000  0.045  0.045
   11  0.000  0.000  0.067  0.067
   12  0.001  0.001  0.090  0.091
   13  0.000  0.000  0.007  0.007
   14  0.000  0.000  0.031  0.031
   15  0.000  0.000  0.015  0.015
   16  0.000  0.000  0.031  0.031
   17  0.000  0.000  0.000  0.000
   18  0.000  0.000  0.000  0.000
tot    0.004  0.007  0.909  0.919
 
band    32 # energy   -3.73961934 # occ.  2.00000000
 
ion      s      p      d    tot
    1  0.000  0.000  0.064  0.065
    2  0.000  0.001  0.035  0.036
    3  0.000  0.000  0.063  0.063
    4  0.000  0.001  0.034  0.035
    5  0.001  0.000  0.101  0.102
    6  0.000  0.001  0.079  0.080
    7  0.001  0.000  0.100  0.101
    8  0.000  0.001  0.080  0.081
    9  0.001  0.001  0.083  0.084
   10  0.000  0.000  0.045  0.045
   11  0.001  0.001  0.082  0.083
   12  0.000  0.000  0.059  0.059
   13  0.000  0.000  0.007  0.007
   14  0.000  0.000  0.020  0.021
   15  0.000  0.000  0.036  0.036
   16  0.000  0.000  0.020  0.020
   17  0.000  0.000  0.000  0.000
   18  0.000  0.000  0.000  0.000
tot    0.004  0.007  0.909  0.919
 
band    33 # energy   -3.71159369 # occ.  2.00000000
 
ion      s      p      d    tot
    1  0.001  0.000  0.004  0.005
    2  0.001  0.000  0.005  0.006
    3  0.001  0.000  0.005  0.006
    4  0.001  0.000  0.005  0.006
    5  0.000  0.003  0.032  0.035
    6  0.000  0.003  0.032  0.035
    7  0.000  0.003  0.033  0.036
    8  0.000  0.004  0.105  0.109
    9  0.001  0.000  0.141  0.142
   10  0.001  0.000  0.073  0.074
   11  0.001  0.000  0.142  0.143
   12  0.001  0.000  0.142  0.143
   13  0.001  0.003  0.032  0.036
   14  0.000  0.002  0.046  0.048
   15  0.000  0.002  0.046  0.048
   16  0.000  0.002  0.046  0.048
   17  0.000  0.000  0.000  0.000
   18  0.000  0.000  0.000  0.000
tot    0.010  0.023  0.888  0.921
 
band    34 # energy   -3.58371116 # occ.  2.00000000
 
ion      s      p      d    tot
    1  0.000  0.004  0.093  0.097
    2  0.000  0.002  0.059  0.062
    3  0.000  0.002  0.059  0.062
    4  0.000  0.002  0.059  0.062
    5  0.003  0.001  0.100  0.104
    6  0.003  0.001  0.100  0.104
    7  0.003  0.001  0.100  0.104
    8  0.002  0.000  0.067  0.069
    9  0.000  0.006  0.000  0.007
   10  0.001  0.011  0.002  0.014
   11  0.000  0.006  0.000  0.007
   12  0.000  0.006  0.000  0.007
   13  0.001  0.001  0.030  0.032
   14  0.002  0.001  0.052  0.054
   15  0.002  0.001  0.052  0.054
   16  0.002  0.001  0.052  0.054
   17  0.000  0.001  0.000  0.001
   18  0.000  0.003  0.000  0.003
tot    0.021  0.050  0.826  0.897
 
band    35 # energy   -3.51499361 # occ.  2.00000000
 
ion      s      p      d    tot
    1  0.000  0.000  0.016  0.016
    2  0.000  0.000  0.012  0.012
    3  0.000  0.000  0.012  0.012
    4  0.000  0.000  0.008  0.008
    5  0.000  0.000  0.107  0.107
    6  0.000  0.000  0.117  0.117
    7  0.000  0.000  0.116  0.116
    8  0.000  0.000  0.133  0.133
    9  0.000  0.000  0.079  0.079
   10  0.000  0.000  0.095  0.095
   11  0.000  0.000  0.068  0.068
   12  0.000  0.000  0.081  0.081
   13  0.000  0.000  0.023  0.023
   14  0.000  0.000  0.021  0.021
   15  0.000  0.000  0.022  0.022
   16  0.000  0.000  0.017  0.017
   17  0.000  0.000  0.000  0.000
   18  0.000  0.005  0.000  0.005
tot    0.000  0.006  0.928  0.934
 
band    36 # energy   -3.51498820 # occ.  2.00000000
 
ion      s      p      d    tot
    1  0.000  0.000  0.016  0.016
    2  0.000  0.000  0.010  0.010
    3  0.000  0.000  0.009  0.009
    4  0.000  0.000  0.013  0.013
    5  0.000  0.000  0.120  0.120
    6  0.000  0.000  0.109  0.109
    7  0.000  0.000  0.110  0.111
    8  0.000  0.000  0.133  0.133
    9  0.000  0.000  0.073  0.073
   10  0.000  0.000  0.095  0.095
   11  0.000  0.000  0.084  0.084
   12  0.000  0.000  0.071  0.071
   13  0.000  0.000  0.023  0.023
   14  0.000  0.000  0.019  0.019
   15  0.000  0.000  0.018  0.018
   16  0.000  0.000  0.023  0.023
   17  0.000  0.000  0.000  0.000
   18  0.000  0.005  0.000  0.005
tot    0.000  0.006  0.928  0.934
 
band    37 # energy   -3.39783501 # occ.  2.00000000
 
ion      s      p      d    tot
    1  0.000  0.000  0.004  0.004
    2  0.000  0.000  0.011  0.011
    3  0.000  0.000  0.009  0.009
    4  0.000  0.000  0.011  0.011
    5  0.000  0.000  0.072  0.073
    6  0.000  0.000  0.087  0.087
    7  0.000  0.000  0.071  0.071
    8  0.000  0.000  0.110  0.110
    9  0.000  0.000  0.148  0.148
   10  0.000  0.000  0.107  0.107
   11  0.000  0.000  0.145  0.145
   12  0.000  0.000  0.119  0.119
   13  0.000  0.000  0.013  0.013
   14  0.000  0.000  0.006  0.006
   15  0.000  0.000  0.020  0.020
   16  0.000  0.000  0.008  0.008
   17  0.000  0.000  0.000  0.000
   18  0.000  0.001  0.000  0.001
tot    0.000  0.003  0.941  0.944
 
band    38 # energy   -3.39779895 # occ.  2.00000000
 
ion      s      p      d    tot
    1  0.000  0.000  0.004  0.004
    2  0.000  0.000  0.010  0.010
    3  0.000  0.000  0.012  0.012
    4  0.000  0.000  0.010  0.010
    5  0.000  0.000  0.081  0.081
    6  0.000  0.000  0.066  0.066
    7  0.000  0.000  0.083  0.083
    8  0.000  0.000  0.110  0.110
    9  0.000  0.000  0.127  0.127
   10  0.000  0.000  0.107  0.107
   11  0.000  0.000  0.130  0.130
   12  0.000  0.000  0.155  0.155
   13  0.000  0.000  0.013  0.013
   14  0.000  0.000  0.016  0.017
   15  0.000  0.000  0.003  0.003
   16  0.000  0.000  0.015  0.015
   17  0.000  0.000  0.000  0.000
   18  0.000  0.001  0.000  0.001
tot    0.000  0.003  0.941  0.944
 
band    39 # energy   -3.28495477 # occ.  2.00000000
 
ion      s      p      d    tot
    1  0.000  0.000  0.021  0.021
    2  0.000  0.000  0.008  0.008
    3  0.000  0.000  0.009  0.010
    4  0.000  0.000  0.009  0.009
    5  0.000  0.000  0.068  0.068
    6  0.000  0.000  0.080  0.080
    7  0.000  0.000  0.041  0.041
    8  0.000  0.000  0.058  0.059
    9  0.000  0.001  0.010  0.011
   10  0.000  0.000  0.035  0.035
   11  0.000  0.000  0.051  0.052
   12  0.000  0.000  0.069  0.070
   13  0.000  0.000  0.110  0.110
   14  0.000  0.000  0.081  0.081
   15  0.000  0.000  0.114  0.114
   16  0.000  0.000  0.104  0.104
   17  0.000  0.000  0.002  0.002
   18  0.000  0.045  0.000  0.045
tot    0.001  0.049  0.869  0.919
 
band    40 # energy   -3.28495064 # occ.  2.00000000
 
ion      s      p      d    tot
    1  0.000  0.000  0.021  0.021
    2  0.000  0.000  0.010  0.010
    3  0.000  0.000  0.008  0.008
    4  0.000  0.000  0.009  0.009
    5  0.000  0.000  0.058  0.058
    6  0.000  0.000  0.046  0.046
    7  0.000  0.000  0.085  0.085
    8  0.000  0.000  0.058  0.059
    9  0.000  0.000  0.077  0.077
   10  0.000  0.000  0.034  0.035
   11  0.000  0.001  0.036  0.036
   12  0.000  0.001  0.018  0.019
   13  0.000  0.000  0.110  0.110
   14  0.000  0.000  0.118  0.118
   15  0.000  0.000  0.085  0.085
   16  0.000  0.000  0.095  0.095
   17  0.000  0.000  0.002  0.002
   18  0.000  0.045  0.000  0.045
tot    0.001  0.049  0.869  0.919
 
band    41 # energy   -3.19416853 # occ.  2.00000000
 
ion      s      p      d    tot
    1  0.000  0.000  0.026  0.026
    2  0.000  0.000  0.023  0.024
    3  0.000  0.000  0.034  0.034
    4  0.000  0.000  0.024  0.024
    5  0.000  0.001  0.039  0.039
    6  0.000  0.000  0.117  0.117
    7  0.000  0.001  0.033  0.034
    8  0.000  0.000  0.079  0.080
    9  0.000  0.000  0.022  0.023
   10  0.000  0.001  0.121  0.122