<?xml version="1.0" encoding="ISO-8859-1"?>
<modeling>
 <generator>
  <i name="program" type="string">vasp </i>
  <i name="version" type="string">5.4.4.18Apr17-6-g9f103f2a35  </i>
  <i name="subversion" type="string">(build Aug 07 2018 15:16:41) complex            parallel </i>
  <i name="platform" type="string">LinuxIFC </i>
  <i name="date" type="string">2019 10 18 </i>
  <i name="time" type="string">01:18:29 </i>
 </generator>
 <incar>
  <i type="string" name="PREC">normal</i>
  <i type="int" name="IBRION">     2</i>
  <i name="EDIFFG">     -0.03000000</i>
  <i type="int" name="NSW">     0</i>
  <i type="int" name="ISIF">     0</i>
  <i type="int" name="ISYM">     0</i>
  <i name="ENCUT">    350.00000000</i>
  <v name="RWIGS">      1.50000000      0.80000000      0.80000000</v>
  <i type="string" name="LREAL"> Auto</i>
  <i type="logical" name="LWAVE"> F  </i>
  <i type="logical" name="LCHARG"> F  </i>
  <i type="int" name="LORBIT">     0</i>
  <v type="int" name="KPOINT_BSE">    -1     0     0     0</v>
  <i type="string" name="GGA"> RP</i>
 </incar>
 <structure name="primitive_cell" >
  <crystal>
   <varray name="basis" >
    <v>       5.64384424       0.00000000       0.00000000 </v>
    <v>       2.82192212       4.88771248       0.00000000 </v>
    <v>       0.00000000       0.00000000      26.91226928 </v>
   </varray>
   <i name="volume">    742.38807929 </i>
   <varray name="rec_basis" >
    <v>       0.17718420      -0.10229734       0.00000000 </v>
    <v>       0.00000000       0.20459469       0.00000000 </v>
    <v>       0.00000000       0.00000000       0.03715777 </v>
   </varray>
  </crystal>
  <varray name="positions" >
   <v>       0.00000000       0.00000000       0.37157773 </v>
   <v>       0.16666667       0.16666667       0.45719258 </v>
   <v>       0.16666667      -0.33333333       0.45719258 </v>
   <v>      -0.33333333       0.16666667       0.45719258 </v>
   <v>       0.00000000      -0.50000000       0.37157773 </v>
   <v>      -0.50000000      -0.50000000       0.37157773 </v>
   <v>      -0.50000000       0.00000000       0.37157773 </v>
   <v>      -0.33333333      -0.33333333       0.45719258 </v>
   <v>      -0.16831586      -0.16831611      -0.45702283 </v>
   <v>       0.33664250      -0.16831946      -0.45702184 </v>
   <v>      -0.16831944       0.33664283      -0.45702181 </v>
   <v>       0.33333577       0.33333615      -0.45765419 </v>
   <v>      -0.00000026      -0.00000013      -0.37427727 </v>
   <v>      -0.49896143      -0.00208393      -0.36754918 </v>
   <v>      -0.00208399      -0.49896132      -0.36754914 </v>
   <v>      -0.49896774      -0.49896743      -0.36754234 </v>
   <v>       0.33331451       0.33331443      -0.31772423 </v>
   <v>       0.33329167       0.33329138      -0.27316762 </v>
  </varray>
 </structure>
 <varray name="primitive_index" >
  <v type="int" >        1 </v>
  <v type="int" >        5 </v>
  <v type="int" >        7 </v>
  <v type="int" >        6 </v>
  <v type="int" >        3 </v>
  <v type="int" >        4 </v>
  <v type="int" >        2 </v>
  <v type="int" >        8 </v>
  <v type="int" >       11 </v>
  <v type="int" >       12 </v>
  <v type="int" >        9 </v>
  <v type="int" >       10 </v>
  <v type="int" >       13 </v>
  <v type="int" >       14 </v>
  <v type="int" >       15 </v>
  <v type="int" >       16 </v>
  <v type="int" >       17 </v>
  <v type="int" >       18 </v>
 </varray>
 <kpoints>
  <generation param="Monkhorst-Pack">
   <v type="int" name="divisions">       5        5        1 </v>
   <v name="usershift">      0.00000000       0.00000000       0.00000000 </v>
   <v name="genvec1">      0.20000000       0.00000000       0.00000000 </v>
   <v name="genvec2">      0.00000000       0.20000000       0.00000000 </v>
   <v name="genvec3">      0.00000000       0.00000000       1.00000000 </v>
   <v name="shift">      0.00000000       0.00000000       0.00000000 </v>
  </generation>
  <varray name="kpointlist" >
   <v>       0.00000000       0.00000000       0.00000000 </v>
   <v>       0.20000000       0.00000000       0.00000000 </v>
   <v>       0.40000000       0.00000000       0.00000000 </v>
   <v>       0.00000000       0.20000000       0.00000000 </v>
   <v>       0.20000000       0.20000000       0.00000000 </v>
   <v>       0.40000000       0.20000000       0.00000000 </v>
   <v>      -0.40000000       0.20000000       0.00000000 </v>
   <v>      -0.20000000       0.20000000       0.00000000 </v>
   <v>       0.00000000       0.40000000       0.00000000 </v>
   <v>       0.20000000       0.40000000       0.00000000 </v>
   <v>       0.40000000       0.40000000       0.00000000 </v>
   <v>      -0.40000000       0.40000000       0.00000000 </v>
   <v>      -0.20000000       0.40000000       0.00000000 </v>
  </varray>
  <varray name="weights" >
   <v>       0.04000000 </v>
   <v>       0.08000000 </v>
   <v>       0.08000000 </v>
   <v>       0.08000000 </v>
   <v>       0.08000000 </v>
   <v>       0.08000000 </v>
   <v>       0.08000000 </v>
   <v>       0.08000000 </v>
   <v>       0.08000000 </v>
   <v>       0.08000000 </v>
   <v>       0.08000000 </v>
   <v>       0.08000000 </v>
   <v>       0.08000000 </v>
  </varray>
 </kpoints>
 <parameters>
  <separator name="general" >
   <i type="string" name="SYSTEM">unknown system</i>
   <i type="logical" name="LCOMPAT"> F  </i>
  </separator>
  <separator name="electronic" >
   <i type="string" name="PREC">normal</i>
   <i name="ENMAX">    350.00000000</i>
   <i name="ENAUG">    644.87300000</i>
   <i name="EDIFF">      0.00010000</i>
   <i type="int" name="IALGO">    38</i>
   <i type="int" name="IWAVPR">    10</i>
   <i type="int" name="NBANDS">   104</i>
   <i name="NELECT">    170.00000000</i>
   <i type="int" name="TURBO">     0</i>
   <i type="int" name="IRESTART">     0</i>
   <i type="int" name="NREBOOT">     0</i>
   <i type="int" name="NMIN">     0</i>
   <i name="EREF">      0.00000000</i>
   <separator name="electronic smearing" >
    <i type="int" name="ISMEAR">     1</i>
    <i name="SIGMA">      0.20000000</i>
    <i name="KSPACING">      0.50000000</i>
    <i type="logical" name="KGAMMA"> T  </i>
   </separator>
   <separator name="electronic projectors" >
    <i type="logical" name="LREAL"> T  </i>
    <v name="ROPT">     -0.00050000     -0.00050000     -0.00050000</v>
    <i type="int" name="LMAXPAW">  -100</i>
    <i type="int" name="LMAXMIX">     2</i>
    <i type="logical" name="NLSPLINE"> F  </i>
   </separator>
   <separator name="electronic startup" >
    <i type="int" name="ISTART">     0</i>
    <i type="int" name="ICHARG">     2</i>
    <i type="int" name="INIWAV">     1</i>
   </separator>
   <separator name="electronic spin" >
    <i type="int" name="ISPIN">     1</i>
    <i type="logical" name="LNONCOLLINEAR"> F  </i>
    <v name="MAGMOM">      1.00000000      1.00000000      1.00000000      1.00000000      1.00000000      1.00000000      1.00000000      1.00000000      1.00000000      1.00000000      1.00000000      1.00000000      1.00000000      1.00000000      1.00000000      1.00000000      1.00000000      1.00000000</v>
    <i name="NUPDOWN">     -1.00000000</i>
    <i type="logical" name="LSORBIT"> F  </i>
    <v name="SAXIS">      0.00000000      0.00000000      1.00000000</v>
    <i type="logical" name="LSPIRAL"> F  </i>
    <v name="QSPIRAL">      0.00000000      0.00000000      0.00000000</v>
    <i type="logical" name="LZEROZ"> F  </i>
   </separator>
   <separator name="electronic exchange-correlation" >
    <i type="logical" name="LASPH"> F  </i>
    <i type="logical" name="LMETAGGA"> F  </i>
   </separator>
   <separator name="electronic convergence" >
    <i type="int" name="NELM">    60</i>
    <i type="int" name="NELMDL">    -5</i>
    <i type="int" name="NELMIN">     2</i>
    <i name="ENINI">    350.00000000</i>
    <separator name="electronic convergence detail" >
     <i type="logical" name="LDIAG"> T  </i>
     <i type="logical" name="LSUBROT"> F  </i>
     <i name="WEIMIN">      0.00000000</i>
     <i name="EBREAK">      0.00000024</i>
     <i name="DEPER">      0.30000000</i>
     <i type="int" name="NRMM">     4</i>
     <i name="TIME">      0.40000000</i>
    </separator>
   </separator>
   <separator name="electronic mixer" >
    <i name="AMIX">      0.40000000</i>
    <i name="BMIX">      1.00000000</i>
    <i name="AMIN">      0.10000000</i>
    <i name="AMIX_MAG">      1.60000000</i>
    <i name="BMIX_MAG">      1.00000000</i>
    <separator name="electronic mixer details" >
     <i type="int" name="IMIX">     4</i>
     <i type="logical" name="MIXFIRST"> F  </i>
     <i type="int" name="MAXMIX">   -45</i>
     <i name="WC">    100.00000000</i>
     <i type="int" name="INIMIX">     1</i>
     <i type="int" name="MIXPRE">     1</i>
     <i type="int" name="MREMOVE">     5</i>
    </separator>
   </separator>
   <separator name="electronic dipolcorrection" >
    <i type="logical" name="LDIPOL"> F  </i>
    <i type="logical" name="LMONO"> F  </i>
    <i type="int" name="IDIPOL">     0</i>
    <i name="EPSILON">      1.00000000</i>
    <v name="DIPOL">   -100.00000000   -100.00000000   -100.00000000</v>
    <i name="EFIELD">      0.00000000</i>
   </separator>
  </separator>
  <separator name="grids" >
   <i type="int" name="NGX">    28</i>
   <i type="int" name="NGY">    28</i>
   <i type="int" name="NGZ">   126</i>
   <i type="int" name="NGXF">    56</i>
   <i type="int" name="NGYF">    56</i>
   <i type="int" name="NGZF">   252</i>
   <i type="logical" name="ADDGRID"> F  </i>
  </separator>
  <separator name="ionic" >
   <i type="int" name="NSW">     0</i>
   <i type="int" name="IBRION">    -1</i>
   <i type="int" name="MDALGO">     0</i>
   <i type="int" name="ISIF">     0</i>
   <i name="PSTRESS">      0.00000000</i>
   <i name="EDIFFG">     -0.03000000</i>
   <i type="int" name="NFREE">     1</i>
   <i name="POTIM">      0.50000000</i>
   <i name="SMASS">     -3.00000000</i>
   <i name="SCALEE">      1.00000000</i>
  </separator>
  <separator name="ionic md" >
   <i name="TEBEG">      0.00010000</i>
   <i name="TEEND">      0.00010000</i>
   <i type="int" name="NBLOCK">     1</i>
   <i type="int" name="KBLOCK">     1</i>
   <i type="int" name="NPACO">   256</i>
   <i name="APACO">     16.00000000</i>
  </separator>
  <separator name="symmetry" >
   <i type="int" name="ISYM">     0</i>
   <i name="SYMPREC">      0.00001000</i>
  </separator>
  <separator name="dos" >
   <i type="int" name="LORBIT">     0</i>
   <v name="RWIGS">      1.50000000      0.80000000      0.80000000</v>
   <i type="int" name="NEDOS">   301</i>
   <i name="EMIN">     10.00000000</i>
   <i name="EMAX">    -10.00000000</i>
   <i name="EFERMI">      0.00000000</i>
  </separator>
  <separator name="writing" >
   <i type="int" name="NWRITE">     2</i>
   <i type="logical" name="LWAVE"> F  </i>
   <i type="logical" name="LDOWNSAMPLE"> F  </i>
   <i type="logical" name="LCHARG"> F  </i>
   <i type="logical" name="LPARD"> F  </i>
   <i type="logical" name="LVTOT"> F  </i>
   <i type="logical" name="LVHAR"> F  </i>
   <i type="logical" name="LELF"> F  </i>
   <i type="logical" name="LOPTICS"> F  </i>
   <v name="STM">      0.00000000      0.00000000      0.00000000      0.00000000      0.00000000      0.00000000      0.00000000</v>
  </separator>
  <separator name="performance" >
   <i type="int" name="NPAR">     4</i>
   <i type="int" name="NSIM">     4</i>
   <i type="int" name="NBLK">    -1</i>
   <i type="logical" name="LPLANE"> T  </i>
   <i type="logical" name="LSCALAPACK"> T  </i>
   <i type="logical" name="LSCAAWARE"> F  </i>
   <i type="logical" name="LSCALU"> F  </i>
   <i type="logical" name="LASYNC"> F  </i>
   <i type="logical" name="LORBITALREAL"> F  </i>
  </separator>
  <separator name="miscellaneous" >
   <i type="int" name="IDIOT">     3</i>
   <i type="int" name="ISPECIAL">     0</i>
   <i type="logical" name="LMUSIC"> F  </i>
   <v name="POMASS">    195.08000000     12.01100000     16.00000000</v>
   <v name="DARWINR">      0.00000000      0.00000000      0.00000000</v>
   <v name="DARWINV">      1.00000000      1.00000000      1.00000000</v>
   <i type="logical" name="LCORR"> T  </i>
  </separator>
  <i type="logical" name="GGA_COMPAT"> T  </i>
  <i type="logical" name="LBERRY"> F  </i>
  <i type="int" name="ICORELEVEL">     0</i>
  <i type="logical" name="LDAU"> F  </i>
  <i type="int" name="I_CONSTRAINED_M">     0</i>
  <separator name="electronic exchange-correlation" >
   <i type="string" name="GGA">RP</i>
   <i type="int" name="VOSKOWN">     0</i>
   <i type="logical" name="LHFCALC"> F  </i>
   <i type="string" name="PRECFOCK"></i>
   <i type="logical" name="LSYMGRAD"> F  </i>
   <i type="logical" name="LHFONE"> F  </i>
   <i type="logical" name="LRHFCALC"> F  </i>
   <i type="logical" name="LTHOMAS"> F  </i>
   <i type="logical" name="LMODELHF"> F  </i>
   <i name="ENCUT4O">     -1.00000000</i>
   <i type="int" name="EXXOEP">     0</i>
   <i type="int" name="FOURORBIT">     0</i>
   <i name="AEXX">      0.00000000</i>
   <i name="HFALPHA">      0.00000000</i>
   <i name="MCALPHA">      0.00000000</i>
   <i name="ALDAX">      1.00000000</i>
   <i name="AGGAX">      1.00000000</i>
   <i name="ALDAC">      1.00000000</i>
   <i name="AGGAC">      1.00000000</i>
   <i type="int" name="NKREDX">     1</i>
   <i type="int" name="NKREDY">     1</i>
   <i type="int" name="NKREDZ">     1</i>
   <i type="logical" name="SHIFTRED"> F  </i>
   <i type="logical" name="ODDONLY"> F  </i>
   <i type="logical" name="EVENONLY"> F  </i>
   <i type="int" name="LMAXFOCK">     0</i>
   <i type="int" name="NMAXFOCKAE">     0</i>
   <i type="logical" name="LFOCKAEDFT"> F  </i>
   <i name="HFSCREEN">      0.00000000</i>
   <i name="HFSCREENC">      0.00000000</i>
   <i type="int" name="NBANDSGWLOW">     0</i>
  </separator>
  <separator name="vdW DFT" >
   <i type="logical" name="LUSE_VDW"> F  </i>
   <i name="Zab_VDW">     -0.84910000</i>
   <i name="PARAM1">      0.12340000</i>
   <i name="PARAM2">      1.00000000</i>
   <i name="PARAM3">      0.00000000</i>
  </separator>
  <separator name="model GW" >
   <i type="int" name="MODEL_GW">     0</i>
   <i name="MODEL_EPS0">     24.74626931</i>
   <i name="MODEL_ALPHA">      1.00000000</i>
  </separator>
  <separator name="linear response parameters" >
   <i type="logical" name="LEPSILON"> F  </i>
   <i type="logical" name="LRPA"> F  </i>
   <i type="logical" name="LNABLA"> F  </i>
   <i type="logical" name="LVEL"> F  </i>
   <i type="int" name="KINTER">     0</i>
   <i name="CSHIFT">      0.10000000</i>
   <i name="OMEGAMAX">     -1.00000000</i>
   <i name="DEG_THRESHOLD">      0.00200000</i>
   <i name="RTIME">     -0.10000000</i>
   <i name="WPLASMAI">      0.00000000</i>
   <v name="DFIELD">      0.00000000      0.00000000      0.00000000</v>
   <v name="WPLASMA">      0.00000000      0.00000000      0.00000000      0.00000000      0.00000000      0.00000000      0.00000000      0.00000000      0.00000000</v>
  </separator>
  <separator name="orbital magnetization" >
   <i type="logical" name="NUCIND"> F  </i>
   <v name="MAGPOS">      0.00000000      0.00000000      0.00000000</v>
   <i type="logical" name="LNICSALL"> T  </i>
   <i type="logical" name="ORBITALMAG"> F  </i>
   <i type="logical" name="LMAGBLOCH"> F  </i>
   <i type="logical" name="LCHIMAG"> F  </i>
   <i type="logical" name="LGAUGE"> T  </i>
   <i type="int" name="MAGATOM">     0</i>
   <v name="MAGDIPOL">      0.00000000      0.00000000      0.00000000</v>
   <v name="AVECCONST">      0.00000000      0.00000000      0.00000000</v>
  </separator>
  <separator name="response functions" >
   <i type="logical" name="LADDER"> F  </i>
   <i type="logical" name="LRPAFORCE"> F  </i>
   <i type="logical" name="LFXC"> F  </i>
   <i type="logical" name="LHARTREE"> T  </i>
   <i type="int" name="IBSE">     0</i>
   <v type="int" name="KPOINT">    -1     0     0     0</v>
   <i type="logical" name="LTCTE"> F  </i>
   <i type="logical" name="LTETE"> F  </i>
   <i type="logical" name="LTRIPLET"> F  </i>
   <i type="logical" name="LFXCEPS"> F  </i>
   <i type="logical" name="LFXHEG"> F  </i>
   <i type="int" name="NATURALO">     2</i>
   <i type="logical" name="L2ORDER"> F  </i>
   <i type="logical" name="LMP2LT"> F  </i>
   <i type="logical" name="LUSEW"> F  </i>
   <i name="ENCUTGW">     -2.00000000</i>
   <i name="ENCUTGWSOFT">     -2.00000000</i>
   <i name="ENCUTLF">     -1.00000000</i>
   <i type="int" name="LMAXMP2">    -1</i>
   <i name="SCISSOR">      0.00000000</i>
   <i type="int" name="NOMEGA">     0</i>
   <i type="int" name="NOMEGAR">     0</i>
   <i type="int" name="NBANDSGW">    -1</i>
   <i type="int" name="NBANDSO">    -1</i>
   <i type="int" name="NBANDSV">    -1</i>
   <i type="int" name="NELM">     1</i>
   <i type="int" name="NELMHF">     1</i>
   <i type="int" name="DIM">     3</i>
   <i type="int" name="ANTIRES">     0</i>
   <i name="OMEGAMAX">    -30.00000000</i>
   <i name="OMEGAMIN">    -30.00000000</i>
   <i name="OMEGATL">   -200.00000000</i>
   <i type="int" name="OMEGAGRID">   140</i>
   <i name="CSHIFT">     -0.10000000</i>
   <i type="logical" name="SELFENERGY"> F  </i>
   <i type="logical" name="LSPECTRAL"> F  </i>
   <i type="logical" name="LSPECTRALGW"> F  </i>
   <i type="logical" name="LSINGLES"> F  </i>
   <i type="logical" name="LFERMIGW"> F  </i>
   <i type="logical" name="ODDONLYGW"> F  </i>
   <i type="logical" name="EVENONLYGW"> F  </i>
   <i type="int" name="NKREDLFX">     1</i>
   <i type="int" name="NKREDLFY">     1</i>
   <i type="int" name="NKREDLFZ">     1</i>
   <i type="int" name="MAXMEM">  2800</i>
   <i type="int" name="TELESCOPE">     0</i>
   <i type="int" name="TAUPAR">     1</i>
   <i type="int" name="OMEGAPAR">    -1</i>
   <i name="LAMBDA">      1.00000000</i>
  </separator>
  <separator name="External order field" >
   <i name="OFIELD_KAPPA">      0.00000000</i>
   <v name="OFIELD_K">      0.00000000      0.00000000      0.00000000</v>
   <i name="OFIELD_Q6_NEAR">      0.00000000</i>
   <i name="OFIELD_Q6_FAR">      0.00000000</i>
   <i name="OFIELD_A">      0.00000000</i>
  </separator>
 </parameters>
 <atominfo>
  <atoms>      18 </atoms>
  <types>       3 </types>
  <array name="atoms" >
   <dimension dim="1">ion</dimension>
   <field type="string">element</field>
   <field type="int">atomtype</field>
   <set>
    <rc><c>Pt</c><c>   1</c></rc>
    <rc><c>Pt</c><c>   1</c></rc>
    <rc><c>Pt</c><c>   1</c></rc>
    <rc><c>Pt</c><c>   1</c></rc>
    <rc><c>Pt</c><c>   1</c></rc>
    <rc><c>Pt</c><c>   1</c></rc>
    <rc><c>Pt</c><c>   1</c></rc>
    <rc><c>Pt</c><c>   1</c></rc>
    <rc><c>Pt</c><c>   1</c></rc>
    <rc><c>Pt</c><c>   1</c></rc>
    <rc><c>Pt</c><c>   1</c></rc>
    <rc><c>Pt</c><c>   1</c></rc>
    <rc><c>Pt</c><c>   1</c></rc>
    <rc><c>Pt</c><c>   1</c></rc>
    <rc><c>Pt</c><c>   1</c></rc>
    <rc><c>Pt</c><c>   1</c></rc>
    <rc><c>C </c><c>   2</c></rc>
    <rc><c>O </c><c>   3</c></rc>
   </set>
  </array>
  <array name="atomtypes" >
   <dimension dim="1">type</dimension>
   <field type="int">atomspertype</field>
   <field type="string">element</field>
   <field>mass</field>
   <field>valence</field>
   <field type="string">pseudopotential</field>
   <set>
    <rc><c>  16</c><c>Pt</c><c>    195.08000000</c><c>     10.00000000</c><c>  PAW_PBE Pt 04Feb2005                  </c></rc>
    <rc><c>   1</c><c>C </c><c>     12.01100000</c><c>      4.00000000</c><c>  PAW_PBE C 08Apr2002                   </c></rc>
    <rc><c>   1</c><c>O </c><c>     16.00000000</c><c>      6.00000000</c><c>  PAW_PBE O 08Apr2002                   </c></rc>
   </set>
  </array>
 </atominfo>
 <structure name="initialpos" >
  <crystal>
   <varray name="basis" >
    <v>       5.64384424       0.00000000       0.00000000 </v>
    <v>       2.82192212       4.88771248       0.00000000 </v>
    <v>       0.00000000       0.00000000      26.91226928 </v>
   </varray>
   <i name="volume">    742.38807929 </i>
   <varray name="rec_basis" >
    <v>       0.17718420      -0.10229734       0.00000000 </v>
    <v>       0.00000000       0.20459469       0.00000000 </v>
    <v>       0.00000000       0.00000000       0.03715777 </v>
   </varray>
  </crystal>
  <varray name="positions" >
   <v>       0.00000000       0.00000000       0.37157773 </v>
   <v>       0.50000000       0.00000000       0.37157773 </v>
   <v>       0.00000000       0.50000000       0.37157773 </v>
   <v>       0.50000000       0.50000000       0.37157773 </v>
   <v>       0.16666667       0.16666667       0.45719258 </v>
   <v>       0.66666667       0.16666667       0.45719258 </v>
   <v>       0.16666667       0.66666667       0.45719258 </v>
   <v>       0.66666667       0.66666667       0.45719258 </v>
   <v>       0.83168056       0.33664283       0.54297819 </v>
   <v>       0.33333577       0.33333615       0.54234581 </v>
   <v>       0.83168414       0.83168389       0.54297717 </v>
   <v>       0.33664250       0.83168054       0.54297816 </v>
   <v>       0.99999974       0.99999987       0.62572273 </v>
   <v>       0.50103857       0.99791607       0.63245082 </v>
   <v>       0.99791601       0.50103868       0.63245086 </v>
   <v>       0.50103226       0.50103257       0.63245766 </v>
   <v>       0.33331451       0.33331443       0.68227577 </v>
   <v>       0.33329167       0.33329138       0.72683238 </v>
  </varray>
  <varray name="selective"  type="logical" >
   <v type="logical" >  F  F  F </v>
   <v type="logical" >  F  F  F </v>
   <v type="logical" >  F  F  F </v>
   <v type="logical" >  F  F  F </v>
   <v type="logical" >  F  F  F </v>
   <v type="logical" >  F  F  F </v>
   <v type="logical" >  F  F  F </v>
   <v type="logical" >  F  F  F </v>
   <v type="logical" >  T  T  T </v>
   <v type="logical" >  T  T  T </v>
   <v type="logical" >  T  T  T </v>
   <v type="logical" >  T  T  T </v>
   <v type="logical" >  T  T  T </v>
   <v type="logical" >  T  T  T </v>
   <v type="logical" >  T  T  T </v>
   <v type="logical" >  T  T  T </v>
   <v type="logical" >  T  T  T </v>
   <v type="logical" >  T  T  T </v>
  </varray>
  <nose>
   <v>      -3.00000000       0.00000000       0.00010000       0.00010000 </v>
  </nose>
 </structure>
 <calculation>
  <scstep>
   <time name="dav">    2.61    2.69</time>
   <time name="total">    2.66    2.75</time>
   <energy>
    <i name="alphaZ">    358.28533891 </i>
    <i name="ewald">  72276.53582016 </i>
    <i name="hartreedc"> -85033.78822943 </i>
    <i name="XCdc">     88.38362791 </i>
    <i name="pawpsdc">  11602.90403888 </i>
    <i name="pawaedc"> -11137.02028253 </i>
    <i name="eentropy">     -0.00772320 </i>
    <i name="bandstr">    629.09276230 </i>
    <i name="atom">  12232.07567246 </i>
    <i name="e_fr_energy">   1016.46102546 </i>
    <i name="e_wo_entrp">   1016.46874866 </i>
    <i name="e_0_energy">   1016.46359986 </i>
   </energy>
  </scstep>
  <scstep>
   <time name="dav">    3.00    3.00</time>
   <time name="total">    3.00    3.00</time>
   <energy>
    <i name="e_fr_energy">    -22.62653555 </i>
    <i name="e_wo_entrp">    -22.61390043 </i>
    <i name="e_0_energy">    -22.62232384 </i>
   </energy>
  </scstep>
  <scstep>
   <time name="dav">    2.81    2.82</time>
   <time name="total">    2.82    2.82</time>
   <energy>
    <i name="e_fr_energy">   -103.09482211 </i>
    <i name="e_wo_entrp">   -103.03463167 </i>
    <i name="e_0_energy">   -103.07475863 </i>
   </energy>
  </scstep>
  <scstep>
   <time name="dav">    3.06    3.06</time>
   <time name="total">    3.06    3.06</time>
   <energy>
    <i name="e_fr_energy">   -106.19731779 </i>
    <i name="e_wo_entrp">   -106.13282844 </i>
    <i name="e_0_energy">   -106.17582134 </i>
   </energy>
  </scstep>
  <scstep>
   <time name="dav">    2.99    2.99</time>
   <time name="total">    3.18    3.18</time>
   <energy>
    <i name="e_fr_energy">   -106.27854577 </i>
    <i name="e_wo_entrp">   -106.21412039 </i>
    <i name="e_0_energy">   -106.25707064 </i>
   </energy>
  </scstep>
  <scstep>
   <time name="dav">    3.22    3.22</time>
   <time name="total">    3.44    3.45</time>
   <energy>
    <i name="e_fr_energy">   -101.50999941 </i>
    <i name="e_wo_entrp">   -101.47207531 </i>
    <i name="e_0_energy">   -101.49735805 </i>
   </energy>
  </scstep>
  <scstep>
   <time name="dav">    2.85    2.85</time>
   <time name="total">    3.07    3.08</time>
   <energy>
    <i name="e_fr_energy">   -113.05748418 </i>
    <i name="e_wo_entrp">   -113.09756588 </i>
    <i name="e_0_energy">   -113.07084475 </i>
   </energy>
  </scstep>
  <scstep>
   <time name="dav">    2.72    2.73</time>
   <time name="total">    2.95    2.95</time>
   <energy>
    <i name="e_fr_energy">   -101.30640794 </i>
    <i name="e_wo_entrp">   -101.30310856 </i>
    <i name="e_0_energy">   -101.30530814 </i>
   </energy>
  </scstep>
  <scstep>
   <time name="dav">    3.57    3.57</time>
   <time name="total">    3.79    3.79</time>
   <energy>
    <i name="e_fr_energy">   -122.76965825 </i>
    <i name="e_wo_entrp">   -122.75656178 </i>
    <i name="e_0_energy">   -122.76529276 </i>
   </energy>
  </scstep>
  <scstep>
   <time name="dav">    3.04    3.04</time>
   <time name="total">    3.27    3.27</time>
   <energy>
    <i name="e_fr_energy">   -100.27519962 </i>
    <i name="e_wo_entrp">   -100.25230032 </i>
    <i name="e_0_energy">   -100.26756652 </i>
   </energy>
  </scstep>
  <scstep>
   <time name="dav">    2.69    2.69</time>
   <time name="total">    2.92    2.92</time>
   <energy>
    <i name="e_fr_energy">    -99.31944162 </i>
    <i name="e_wo_entrp">    -99.32450159 </i>
    <i name="e_0_energy">    -99.32112827 </i>
   </energy>
  </scstep>
  <scstep>
   <time name="dav">    2.78    2.78</time>
   <time name="total">    3.00    3.01</time>
   <energy>
    <i name="e_fr_energy">    -98.91924131 </i>
    <i name="e_wo_entrp">    -98.91788735 </i>
    <i name="e_0_energy">    -98.91878999 </i>
   </energy>
  </scstep>
  <scstep>
   <time name="dav">    2.77    2.77</time>
   <time name="total">    2.99    2.99</time>
   <energy>
    <i name="e_fr_energy">    -98.79755106 </i>
    <i name="e_wo_entrp">    -98.78101382 </i>
    <i name="e_0_energy">    -98.79203864 </i>
   </energy>
  </scstep>
  <scstep>
   <time name="dav">    2.67    2.67</time>
   <time name="total">    2.90    2.90</time>
   <energy>
    <i name="e_fr_energy">    -98.80134655 </i>
    <i name="e_wo_entrp">    -98.78798301 </i>
    <i name="e_0_energy">    -98.79689204 </i>
   </energy>
  </scstep>
  <scstep>
   <time name="dav">    2.74    2.74</time>
   <time name="total">    2.96    2.96</time>
   <energy>
    <i name="e_fr_energy">    -98.79015086 </i>
    <i name="e_wo_entrp">    -98.77272013 </i>
    <i name="e_0_energy">    -98.78434062 </i>
   </energy>
  </scstep>
  <scstep>
   <time name="dav">    2.70    2.70</time>
   <time name="total">    2.93    2.93</time>
   <energy>
    <i name="e_fr_energy">    -98.78144959 </i>
    <i name="e_wo_entrp">    -98.76809585 </i>
    <i name="e_0_energy">    -98.77699834 </i>
   </energy>
  </scstep>
  <scstep>
   <time name="dav">    2.74    2.74</time>
   <time name="total">    2.96    2.96</time>
   <energy>
    <i name="e_fr_energy">    -98.77438972 </i>
    <i name="e_wo_entrp">    -98.75555763 </i>
    <i name="e_0_energy">    -98.76811235 </i>
   </energy>
  </scstep>
  <scstep>
   <time name="dav">    2.76    2.76</time>
   <time name="total">    2.99    2.99</time>
   <energy>
    <i name="e_fr_energy">    -98.77355314 </i>
    <i name="e_wo_entrp">    -98.75499551 </i>
    <i name="e_0_energy">    -98.76736726 </i>
   </energy>
  </scstep>
  <scstep>
   <time name="dav">    2.68    2.68</time>
   <time name="total">    2.90    2.90</time>
   <energy>
    <i name="e_fr_energy">    -98.77280290 </i>
    <i name="e_wo_entrp">    -98.75454311 </i>
    <i name="e_0_energy">    -98.76671630 </i>
   </energy>
  </scstep>
  <scstep>
   <time name="dav">    2.52    2.52</time>
   <time name="total">    2.74    2.75</time>
   <energy>
    <i name="e_fr_energy">    -98.77263166 </i>
    <i name="e_wo_entrp">    -98.75433335 </i>
    <i name="e_0_energy">    -98.76653222 </i>
   </energy>
  </scstep>
  <scstep>
   <time name="dav">    1.91    1.91</time>
   <time name="total">    1.94    1.94</time>
   <energy>
    <i name="alphaZ">    358.28533891 </i>
    <i name="ewald">  72276.53582016 </i>
    <i name="hartreedc"> -84862.48058856 </i>
    <i name="XCdc">     84.63776588 </i>
    <i name="pawpsdc">  14973.17697617 </i>
    <i name="pawaedc"> -14547.89221935 </i>
    <i name="eentropy">     -0.01807407 </i>
    <i name="bandstr">   -613.09339459 </i>
    <i name="atom">  12232.07567246 </i>
    <i name="e_fr_energy">    -98.77270301 </i>
    <i name="e_wo_entrp">    -98.75462893 </i>
    <i name="e_0_energy">    -98.76667832 </i>
   </energy>
  </scstep>
  <structure>
   <crystal>
    <varray name="basis" >
     <v>       5.64384424       0.00000000       0.00000000 </v>
     <v>       2.82192212       4.88771248       0.00000000 </v>
     <v>       0.00000000       0.00000000      26.91226928 </v>
    </varray>
    <i name="volume">    742.38807929 </i>
    <varray name="rec_basis" >
     <v>       0.17718420      -0.10229734       0.00000000 </v>
     <v>       0.00000000       0.20459469       0.00000000 </v>
     <v>       0.00000000       0.00000000       0.03715777 </v>
    </varray>
   </crystal>
   <varray name="positions" >
    <v>       0.00000000       0.00000000       0.37157773 </v>
    <v>       0.50000000       0.00000000       0.37157773 </v>
    <v>       0.00000000       0.50000000       0.37157773 </v>
    <v>       0.50000000       0.50000000       0.37157773 </v>
    <v>       0.16666667       0.16666667       0.45719258 </v>
    <v>       0.66666667       0.16666667       0.45719258 </v>
    <v>       0.16666667       0.66666667       0.45719258 </v>
    <v>       0.66666667       0.66666667       0.45719258 </v>
    <v>       0.83168056       0.33664283       0.54297819 </v>
    <v>       0.33333577       0.33333615       0.54234581 </v>
    <v>       0.83168414       0.83168389       0.54297717 </v>
    <v>       0.33664250       0.83168054       0.54297816 </v>
    <v>       0.99999974       0.99999987       0.62572273 </v>
    <v>       0.50103857       0.99791607       0.63245082 </v>
    <v>       0.99791601       0.50103868       0.63245086 </v>
    <v>       0.50103226       0.50103257       0.63245766 </v>
    <v>       0.33331451       0.33331443       0.68227577 </v>
    <v>       0.33329167       0.33329138       0.72683238 </v>
   </varray>
  </structure>
  <varray name="forces" >
   <v>       0.00003083      -0.00005647      -0.08480371 </v>
   <v>       0.00005887      -0.06124515      -0.16525542 </v>
   <v>      -0.05298080       0.03069814      -0.16430099 </v>
   <v>       0.05304266       0.03066942      -0.16433325 </v>
   <v>       0.00397831       0.00227445       0.07020278 </v>
   <v>      -0.00384338       0.00230530       0.07020287 </v>
   <v>       0.00009516      -0.00449627       0.07005715 </v>
   <v>       0.00007274       0.00004924       0.38310787 </v>
   <v>      -0.00009855       0.00017122      -0.00043474 </v>
   <v>       0.00005924       0.00015947      -0.00719511 </v>
   <v>      -0.00000596      -0.00006973      -0.00093073 </v>
   <v>      -0.00002182      -0.00018028      -0.00086814 </v>
   <v>      -0.00001909      -0.00006396      -0.00038774 </v>
   <v>      -0.00007514      -0.00957757      -0.00409935 </v>
   <v>      -0.00833388       0.00470448      -0.00386116 </v>
   <v>       0.00834318       0.00479031      -0.00376246 </v>
   <v>      -0.00038754      -0.00018221      -0.00708730 </v>
   <v>       0.00008517       0.00004961       0.01374942 </v>
  </varray>
  <energy>
   <i name="e_fr_energy">    -98.77270301 </i>
   <i name="e_wo_entrp">    -98.76667832 </i>
   <i name="e_0_energy">     -0.01807407 </i>
  </energy>
  <time name="totalsc">   63.44   63.57</time>
  <eigenvalues>
   <array>
    <dimension dim="1">band</dimension>
    <dimension dim="2">kpoint</dimension>
    <dimension dim="3">spin</dimension>
    <field>eigene</field>
    <field>occ</field>
    <set>
     <set comment="spin 1">
      <set comment="kpoint 1">
       <r>  -22.3988    1.0000 </r>
       <r>  -10.8754    1.0000 </r>
       <r>   -9.1111    1.0000 </r>
       <r>   -7.8013    1.0000 </r>
       <r>   -6.9965    1.0000 </r>
       <r>   -6.7849    1.0000 </r>
       <r>   -6.7497    1.0000 </r>
       <r>   -6.7496    1.0000 </r>
       <r>   -6.5061    1.0000 </r>
       <r>   -6.4373    1.0000 </r>
       <r>   -6.3104    1.0000 </r>
       <r>   -6.3104    1.0000 </r>
       <r>   -6.2805    1.0000 </r>
       <r>   -6.2804    1.0000 </r>
       <r>   -6.1799    1.0000 </r>
       <r>   -5.8804    1.0000 </r>
       <r>   -5.8326    1.0000 </r>
       <r>   -5.8326    1.0000 </r>
       <r>   -5.6738    1.0000 </r>
       <r>   -5.6737    1.0000 </r>
       <r>   -5.6502    1.0000 </r>
       <r>   -5.3870    1.0000 </r>
       <r>   -5.3870    1.0000 </r>
       <r>   -5.0525    1.0000 </r>
       <r>   -4.7855    1.0000 </r>
       <r>   -4.7855    1.0000 </r>
       <r>   -4.6168    1.0000 </r>
       <r>   -3.8341    1.0000 </r>
       <r>   -3.8341    1.0000 </r>
       <r>   -3.7762    1.0000 </r>
       <r>   -3.7396    1.0000 </r>
       <r>   -3.7396    1.0000 </r>
       <r>   -3.7116    1.0000 </r>
       <r>   -3.5837    1.0000 </r>
       <r>   -3.5150    1.0000 </r>
       <r>   -3.5150    1.0000 </r>
       <r>   -3.3978    1.0000 </r>
       <r>   -3.3978    1.0000 </r>
       <r>   -3.2850    1.0000 </r>
       <r>   -3.2850    1.0000 </r>
       <r>   -3.1942    1.0000 </r>
       <r>   -3.1941    1.0000 </r>
       <r>   -3.1651    1.0000 </r>
       <r>   -3.1054    1.0000 </r>
       <r>   -3.0356    1.0000 </r>
       <r>   -3.0356    1.0000 </r>
       <r>   -2.7094    1.0000 </r>
       <r>   -2.6644    1.0000 </r>
       <r>   -2.6643    1.0000 </r>
       <r>   -2.5019    1.0000 </r>
       <r>   -2.3358    1.0000 </r>
       <r>   -2.3358    1.0000 </r>
       <r>   -2.1991    1.0000 </r>
       <r>   -2.1061    1.0000 </r>
       <r>   -2.1061    1.0000 </r>
       <r>   -1.9353    1.0000 </r>
       <r>   -1.6708    1.0000 </r>
       <r>   -1.6708    1.0000 </r>
       <r>   -1.4777    1.0000 </r>
       <r>   -1.4776    1.0000 </r>
       <r>   -1.2433    1.0000 </r>
       <r>   -1.2432    1.0000 </r>
       <r>   -1.1744    1.0000 </r>
       <r>   -0.9637    1.0000 </r>
       <r>   -0.9637    1.0000 </r>
       <r>   -0.8243    1.0000 </r>
       <r>   -0.8098    1.0000 </r>
       <r>   -0.8096    1.0000 </r>
       <r>   -0.4699    1.0261 </r>
       <r>   -0.4698    1.0261 </r>
       <r>   -0.3852    1.0331 </r>
       <r>   -0.3565    1.0214 </r>
       <r>   -0.3564    1.0213 </r>
       <r>   -0.3375    1.0062 </r>
       <r>   -0.2364    0.7883 </r>
       <r>   -0.2363    0.7880 </r>
       <r>   -0.0673    0.1416 </r>
       <r>   -0.0672    0.1414 </r>
       <r>   -0.0573    0.1144 </r>
       <r>    0.0123   -0.0072 </r>
       <r>    0.0124   -0.0073 </r>
       <r>    0.0302   -0.0213 </r>
       <r>    0.0403   -0.0268 </r>
       <r>    0.1201   -0.0312 </r>
       <r>    0.1557   -0.0233 </r>
       <r>    0.1558   -0.0233 </r>
       <r>    0.2993   -0.0026 </r>
       <r>    0.2994   -0.0026 </r>
       <r>    0.3025   -0.0024 </r>
       <r>    0.6032   -0.0000 </r>
       <r>    0.7835   -0.0000 </r>
       <r>    0.7835   -0.0000 </r>
       <r>    1.6507   -0.0000 </r>
       <r>    1.8577   -0.0000 </r>
       <r>    1.8579   -0.0000 </r>
       <r>    2.4467   -0.0000 </r>
       <r>    2.4738   -0.0000 </r>
       <r>    2.4738   -0.0000 </r>
       <r>    2.6826   -0.0000 </r>
       <r>    2.6946   -0.0000 </r>
       <r>    2.6946   -0.0000 </r>
       <r>    3.3223   -0.0000 </r>
       <r>    3.3224   -0.0000 </r>
       <r>    4.9574   -0.0000 </r>
      </set>
      <set comment="kpoint 2">
       <r>  -22.3984    1.0000 </r>
       <r>  -10.7776    1.0000 </r>
       <r>   -8.7982    1.0000 </r>
       <r>   -7.5288    1.0000 </r>
       <r>   -6.8784    1.0000 </r>
       <r>   -6.7232    1.0000 </r>
       <r>   -6.6070    1.0000 </r>
       <r>   -6.4752    1.0000 </r>
       <r>   -6.3999    1.0000 </r>
       <r>   -6.2721    1.0000 </r>
       <r>   -6.1966    1.0000 </r>
       <r>   -6.1368    1.0000 </r>
       <r>   -6.1026    1.0000 </r>
       <r>   -6.0624    1.0000 </r>
       <r>   -5.9533    1.0000 </r>
       <r>   -5.7329    1.0000 </r>
       <r>   -5.6800    1.0000 </r>
       <r>   -5.6688    1.0000 </r>
       <r>   -5.5619    1.0000 </r>
       <r>   -5.4122    1.0000 </r>
       <r>   -5.4080    1.0000 </r>
       <r>   -5.2759    1.0000 </r>
       <r>   -5.2098    1.0000 </r>
       <r>   -4.9300    1.0000 </r>
       <r>   -4.7101    1.0000 </r>
       <r>   -4.6880    1.0000 </r>
       <r>   -4.6028    1.0000 </r>
       <r>   -3.9828    1.0000 </r>
       <r>   -3.9502    1.0000 </r>
       <r>   -3.8873    1.0000 </r>
       <r>   -3.8006    1.0000 </r>
       <r>   -3.7522    1.0000 </r>
       <r>   -3.7066    1.0000 </r>
       <r>   -3.6039    1.0000 </r>
       <r>   -3.5855    1.0000 </r>
       <r>   -3.4864    1.0000 </r>
       <r>   -3.3459    1.0000 </r>
       <r>   -3.3284    1.0000 </r>
       <r>   -3.2887    1.0000 </r>
       <r>   -3.2609    1.0000 </r>
       <r>   -3.1950    1.0000 </r>
       <r>   -3.1522    1.0000 </r>
       <r>   -3.1291    1.0000 </r>
       <r>   -3.0700    1.0000 </r>
       <r>   -3.0576    1.0000 </r>
       <r>   -2.9945    1.0000 </r>
       <r>   -2.9448    1.0000 </r>
       <r>   -2.8647    1.0000 </r>
       <r>   -2.8085    1.0000 </r>
       <r>   -2.8057    1.0000 </r>
       <r>   -2.6744    1.0000 </r>
       <r>   -2.6503    1.0000 </r>
       <r>   -2.3387    1.0000 </r>
       <r>   -2.2503    1.0000 </r>
       <r>   -2.0602    1.0000 </r>
       <r>   -1.9947    1.0000 </r>
       <r>   -1.8805    1.0000 </r>
       <r>   -1.8427    1.0000 </r>
       <r>   -1.6553    1.0000 </r>
       <r>   -1.6111    1.0000 </r>
       <r>   -1.4949    1.0000 </r>
       <r>   -1.4745    1.0000 </r>
       <r>   -1.3754    1.0000 </r>
       <r>   -1.3441    1.0000 </r>
       <r>   -1.3118    1.0000 </r>
       <r>   -1.2407    1.0000 </r>
       <r>   -1.2355    1.0000 </r>
       <r>   -1.1495    1.0000 </r>
       <r>   -1.0207    1.0000 </r>
       <r>   -0.8456    1.0000 </r>
       <r>   -0.8242    1.0000 </r>
       <r>   -0.7019    1.0005 </r>
       <r>   -0.6619    1.0012 </r>
       <r>   -0.6018    1.0041 </r>
       <r>   -0.5587    1.0086 </r>
       <r>   -0.5213    1.0148 </r>
       <r>   -0.5133    1.0164 </r>
       <r>   -0.4440    1.0316 </r>
       <r>   -0.4360    1.0330 </r>
       <r>   -0.4061    1.0354 </r>
       <r>   -0.2763    0.9042 </r>
       <r>   -0.2208    0.7334 </r>
       <r>   -0.2074    0.6826 </r>
       <r>   -0.1923    0.6221 </r>
       <r>   -0.1403    0.4042 </r>
       <r>   -0.0088    0.0175 </r>
       <r>    0.0147   -0.0095 </r>
       <r>    0.0548   -0.0321 </r>
       <r>    0.0951   -0.0348 </r>
       <r>    0.1737   -0.0193 </r>
       <r>    0.9054   -0.0000 </r>
       <r>    1.2727   -0.0000 </r>
       <r>    1.3812   -0.0000 </r>
       <r>    1.6168   -0.0000 </r>
       <r>    1.8542   -0.0000 </r>
       <r>    1.9150   -0.0000 </r>
       <r>    2.4641   -0.0000 </r>
       <r>    2.5091   -0.0000 </r>
       <r>    3.1022   -0.0000 </r>
       <r>    3.5751   -0.0000 </r>
       <r>    3.8578   -0.0000 </r>
       <r>    4.2325   -0.0000 </r>
       <r>    4.4201   -0.0000 </r>
       <r>    5.2826   -0.0000 </r>
      </set>
      <set comment="kpoint 3">
       <r>  -22.3977    1.0000 </r>
       <r>  -10.6146    1.0000 </r>
       <r>   -7.9567    1.0000 </r>
       <r>   -7.0745    1.0000 </r>
       <r>   -6.9011    1.0000 </r>
       <r>   -6.6270    1.0000 </r>
       <r>   -6.4611    1.0000 </r>
       <r>   -6.3839    1.0000 </r>
       <r>   -6.0753    1.0000 </r>
       <r>   -5.7834    1.0000 </r>
       <r>   -5.7114    1.0000 </r>
       <r>   -5.6898    1.0000 </r>
       <r>   -5.6486    1.0000 </r>
       <r>   -5.5766    1.0000 </r>
       <r>   -5.5617    1.0000 </r>
       <r>   -5.4152    1.0000 </r>
       <r>   -5.2214    1.0000 </r>
       <r>   -5.1912    1.0000 </r>
       <r>   -5.1619    1.0000 </r>
       <r>   -5.0785    1.0000 </r>
       <r>   -4.9536    1.0000 </r>
       <r>   -4.9154    1.0000 </r>
       <r>   -4.6742    1.0000 </r>
       <r>   -4.5883    1.0000 </r>
       <r>   -4.5375    1.0000 </r>
       <r>   -4.4658    1.0000 </r>
       <r>   -4.4544    1.0000 </r>
       <r>   -4.4031    1.0000 </r>
       <r>   -4.2010    1.0000 </r>
       <r>   -4.1572    1.0000 </r>
       <r>   -4.0984    1.0000 </r>
       <r>   -4.0342    1.0000 </r>
       <r>   -3.8616    1.0000 </r>
       <r>   -3.7897    1.0000 </r>
       <r>   -3.7731    1.0000 </r>
       <r>   -3.7282    1.0000 </r>
       <r>   -3.6216    1.0000 </r>
       <r>   -3.5423    1.0000 </r>
       <r>   -3.5404    1.0000 </r>
       <r>   -3.4128    1.0000 </r>
       <r>   -3.3434    1.0000 </r>
       <r>   -3.2531    1.0000 </r>
       <r>   -3.1775    1.0000 </r>
       <r>   -3.1537    1.0000 </r>
       <r>   -2.9795    1.0000 </r>
       <r>   -2.9631    1.0000 </r>
       <r>   -2.9389    1.0000 </r>
       <r>   -2.9284    1.0000 </r>
       <r>   -2.8714    1.0000 </r>
       <r>   -2.8309    1.0000 </r>
       <r>   -2.8193    1.0000 </r>
       <r>   -2.7045    1.0000 </r>
       <r>   -2.6489    1.0000 </r>
       <r>   -2.6098    1.0000 </r>
       <r>   -2.6058    1.0000 </r>
       <r>   -2.5116    1.0000 </r>
       <r>   -2.4022    1.0000 </r>
       <r>   -2.3915    1.0000 </r>
       <r>   -2.2809    1.0000 </r>
       <r>   -2.2243    1.0000 </r>
       <r>   -2.1844    1.0000 </r>
       <r>   -2.1389    1.0000 </r>
       <r>   -2.0806    1.0000 </r>
       <r>   -1.9159    1.0000 </r>
       <r>   -1.7620    1.0000 </r>
       <r>   -1.7160    1.0000 </r>
       <r>   -1.6543    1.0000 </r>
       <r>   -1.6119    1.0000 </r>
       <r>   -1.5009    1.0000 </r>
       <r>   -1.4507    1.0000 </r>
       <r>   -1.4299    1.0000 </r>
       <r>   -1.4221    1.0000 </r>
       <r>   -1.2955    1.0000 </r>
       <r>   -1.2764    1.0000 </r>
       <r>   -1.2093    1.0000 </r>
       <r>   -1.1720    1.0000 </r>
       <r>   -1.1041    1.0000 </r>
       <r>   -1.0030    1.0000 </r>
       <r>   -0.8330    1.0000 </r>
       <r>   -0.6933    1.0006 </r>
       <r>   -0.5848    1.0055 </r>
       <r>   -0.5618    1.0082 </r>
       <r>   -0.4070    1.0355 </r>
       <r>   -0.2220    0.7378 </r>
       <r>   -0.2113    0.6977 </r>
       <r>   -0.1954    0.6347 </r>
       <r>   -0.1199    0.3218 </r>
       <r>    0.0694   -0.0348 </r>
       <r>    0.1111   -0.0328 </r>
       <r>    0.2385   -0.0078 </r>
       <r>    1.0337   -0.0000 </r>
       <r>    1.6079   -0.0000 </r>
       <r>    1.6612   -0.0000 </r>
       <r>    1.8729   -0.0000 </r>
       <r>    1.9519   -0.0000 </r>
       <r>    2.3080   -0.0000 </r>
       <r>    2.8070   -0.0000 </r>
       <r>    2.8135   -0.0000 </r>
       <r>    3.3089   -0.0000 </r>
       <r>    4.0617   -0.0000 </r>
       <r>    4.1465   -0.0000 </r>
       <r>    4.7665   -0.0000 </r>
       <r>    5.4056    0.0000 </r>
       <r>    5.9548    0.0000 </r>
      </set>
      <set comment="kpoint 4">
       <r>  -22.3984    1.0000 </r>
       <r>  -10.7776    1.0000 </r>
       <r>   -8.7982    1.0000 </r>
       <r>   -7.5288    1.0000 </r>
       <r>   -6.8784    1.0000 </r>
       <r>   -6.7232    1.0000 </r>
       <r>   -6.6070    1.0000 </r>
       <r>   -6.4752    1.0000 </r>
       <r>   -6.3999    1.0000 </r>
       <r>   -6.2720    1.0000 </r>
       <r>   -6.1966    1.0000 </r>
       <r>   -6.1368    1.0000 </r>
       <r>   -6.1026    1.0000 </r>
       <r>   -6.0623    1.0000 </r>
       <r>   -5.9533    1.0000 </r>
       <r>   -5.7329    1.0000 </r>
       <r>   -5.6801    1.0000 </r>
       <r>   -5.6688    1.0000 </r>
       <r>   -5.5619    1.0000 </r>
       <r>   -5.4123    1.0000 </r>
       <r>   -5.4080    1.0000 </r>
       <r>   -5.2759    1.0000 </r>
       <r>   -5.2098    1.0000 </r>
       <r>   -4.9300    1.0000 </r>
       <r>   -4.7102    1.0000 </r>
       <r>   -4.6880    1.0000 </r>
       <r>   -4.6028    1.0000 </r>
       <r>   -3.9828    1.0000 </r>
       <r>   -3.9502    1.0000 </r>
       <r>   -3.8872    1.0000 </r>
       <r>   -3.8007    1.0000 </r>
       <r>   -3.7521    1.0000 </r>
       <r>   -3.7066    1.0000 </r>
       <r>   -3.6040    1.0000 </r>
       <r>   -3.5855    1.0000 </r>
       <r>   -3.4864    1.0000 </r>
       <r>   -3.3459    1.0000 </r>
       <r>   -3.3284    1.0000 </r>
       <r>   -3.2887    1.0000 </r>
       <r>   -3.2609    1.0000 </r>
       <r>   -3.1950    1.0000 </r>
       <r>   -3.1522    1.0000 </r>
       <r>   -3.1292    1.0000 </r>
       <r>   -3.0700    1.0000 </r>
       <r>   -3.0576    1.0000 </r>
       <r>   -2.9945    1.0000 </r>
       <r>   -2.9449    1.0000 </r>
       <r>   -2.8647    1.0000 </r>
       <r>   -2.8085    1.0000 </r>
       <r>   -2.8057    1.0000 </r>
       <r>   -2.6744    1.0000 </r>
       <r>   -2.6502    1.0000 </r>
       <r>   -2.3386    1.0000 </r>
       <r>   -2.2503    1.0000 </r>
       <r>   -2.0602    1.0000 </r>
       <r>   -1.9947    1.0000 </r>
       <r>   -1.8806    1.0000 </r>
       <r>   -1.8427    1.0000 </r>
       <r>   -1.6553    1.0000 </r>
       <r>   -1.6110    1.0000 </r>
       <r>   -1.4950    1.0000 </r>
       <r>   -1.4745    1.0000 </r>
       <r>   -1.3754    1.0000 </r>
       <r>   -1.3441    1.0000 </r>
       <r>   -1.3118    1.0000 </r>
       <r>   -1.2407    1.0000 </r>
       <r>   -1.2355    1.0000 </r>
       <r>   -1.1494    1.0000 </r>
       <r>   -1.0207    1.0000 </r>
       <r>   -0.8456    1.0000 </r>
       <r>   -0.8242    1.0000 </r>
       <r>   -0.7018    1.0005 </r>
       <r>   -0.6619    1.0012 </r>
       <r>   -0.6018    1.0041 </r>
       <r>   -0.5587    1.0086 </r>
       <r>   -0.5213    1.0148 </r>
       <r>   -0.5133    1.0164 </r>
       <r>   -0.4440    1.0316 </r>
       <r>   -0.4360    1.0330 </r>
       <r>   -0.4061    1.0354 </r>
       <r>   -0.2763    0.9042 </r>
       <r>   -0.2207    0.7330 </r>
       <r>   -0.2075    0.6828 </r>
       <r>   -0.1923    0.6222 </r>
       <r>   -0.1403    0.4040 </r>
       <r>   -0.0088    0.0176 </r>
       <r>    0.0147   -0.0095 </r>
       <r>    0.0548   -0.0321 </r>
       <r>    0.0951   -0.0348 </r>
       <r>    0.1737   -0.0193 </r>
       <r>    0.9054   -0.0000 </r>
       <r>    1.2727   -0.0000 </r>
       <r>    1.3812   -0.0000 </r>
       <r>    1.6168   -0.0000 </r>
       <r>    1.8542   -0.0000 </r>
       <r>    1.9150   -0.0000 </r>
       <r>    2.4641   -0.0000 </r>
       <r>    2.5091   -0.0000 </r>
       <r>    3.1022   -0.0000 </r>
       <r>    3.5751   -0.0000 </r>
       <r>    3.8579   -0.0000 </r>
       <r>    4.2324   -0.0000 </r>
       <r>    4.4201   -0.0000 </r>
       <r>    5.2893   -0.0000 </r>
      </set>
      <set comment="kpoint 5">
       <r>  -22.3984    1.0000 </r>
       <r>  -10.7776    1.0000 </r>
       <r>   -8.7982    1.0000 </r>
       <r>   -7.5288    1.0000 </r>
       <r>   -6.8784    1.0000 </r>
       <r>   -6.7232    1.0000 </r>
       <r>   -6.6069    1.0000 </r>
       <r>   -6.4752    1.0000 </r>
       <r>   -6.3999    1.0000 </r>
       <r>   -6.2720    1.0000 </r>
       <r>   -6.1966    1.0000 </r>
       <r>   -6.1368    1.0000 </r>
       <r>   -6.1026    1.0000 </r>
       <r>   -6.0623    1.0000 </r>
       <r>   -5.9533    1.0000 </r>
       <r>   -5.7329    1.0000 </r>
       <r>   -5.6800    1.0000 </r>
       <r>   -5.6688    1.0000 </r>
       <r>   -5.5619    1.0000 </r>
       <r>   -5.4122    1.0000 </r>
       <r>   -5.4080    1.0000 </r>
       <r>   -5.2759    1.0000 </r>
       <r>   -5.2099    1.0000 </r>
       <r>   -4.9301    1.0000 </r>
       <r>   -4.7102    1.0000 </r>
       <r>   -4.6880    1.0000 </r>
       <r>   -4.6028    1.0000 </r>
       <r>   -3.9827    1.0000 </r>
       <r>   -3.9502    1.0000 </r>
       <r>   -3.8873    1.0000 </r>
       <r>   -3.8006    1.0000 </r>
       <r>   -3.7522    1.0000 </r>
       <r>   -3.7066    1.0000 </r>
       <r>   -3.6040    1.0000 </r>
       <r>   -3.5855    1.0000 </r>
       <r>   -3.4864    1.0000 </r>
       <r>   -3.3459    1.0000 </r>
       <r>   -3.3284    1.0000 </r>
       <r>   -3.2887    1.0000 </r>
       <r>   -3.2609    1.0000 </r>
       <r>   -3.1950    1.0000 </r>
       <r>   -3.1522    1.0000 </r>
       <r>   -3.1291    1.0000 </r>
       <r>   -3.0700    1.0000 </r>
       <r>   -3.0576    1.0000 </r>
       <r>   -2.9945    1.0000 </r>
       <r>   -2.9448    1.0000 </r>
       <r>   -2.8647    1.0000 </r>
       <r>   -2.8085    1.0000 </r>
       <r>   -2.8057    1.0000 </r>
       <r>   -2.6743    1.0000 </r>
       <r>   -2.6503    1.0000 </r>
       <r>   -2.3387    1.0000 </r>
       <r>   -2.2504    1.0000 </r>
       <r>   -2.0602    1.0000 </r>
       <r>   -1.9947    1.0000 </r>
       <r>   -1.8805    1.0000 </r>
       <r>   -1.8427    1.0000 </r>
       <r>   -1.6553    1.0000 </r>
       <r>   -1.6110    1.0000 </r>
       <r>   -1.4950    1.0000 </r>
       <r>   -1.4745    1.0000 </r>
       <r>   -1.3754    1.0000 </r>
       <r>   -1.3441    1.0000 </r>
       <r>   -1.3119    1.0000 </r>
       <r>   -1.2407    1.0000 </r>
       <r>   -1.2354    1.0000 </r>
       <r>   -1.1495    1.0000 </r>
       <r>   -1.0207    1.0000 </r>
       <r>   -0.8457    1.0000 </r>
       <r>   -0.8242    1.0000 </r>
       <r>   -0.7019    1.0005 </r>
       <r>   -0.6618    1.0012 </r>
       <r>   -0.6018    1.0041 </r>
       <r>   -0.5586    1.0086 </r>
       <r>   -0.5213    1.0148 </r>
       <r>   -0.5133    1.0164 </r>
       <r>   -0.4440    1.0316 </r>
       <r>   -0.4361    1.0330 </r>
       <r>   -0.4061    1.0354 </r>
       <r>   -0.2763    0.9041 </r>
       <r>   -0.2209    0.7334 </r>
       <r>   -0.2075    0.6827 </r>
       <r>   -0.1923    0.6221 </r>
       <r>   -0.1403    0.4042 </r>
       <r>   -0.0088    0.0175 </r>
       <r>    0.0147   -0.0095 </r>
       <r>    0.0549   -0.0321 </r>
       <r>    0.0951   -0.0348 </r>
       <r>    0.1737   -0.0193 </r>
       <r>    0.9053   -0.0000 </r>
       <r>    1.2728   -0.0000 </r>
       <r>    1.3812   -0.0000 </r>
       <r>    1.6168   -0.0000 </r>
       <r>    1.8542   -0.0000 </r>
       <r>    1.9150   -0.0000 </r>
       <r>    2.4641   -0.0000 </r>
       <r>    2.5093   -0.0000 </r>
       <r>    3.1022   -0.0000 </r>
       <r>    3.5751   -0.0000 </r>
       <r>    3.8577   -0.0000 </r>
       <r>    4.2324   -0.0000 </r>
       <r>    4.4201   -0.0000 </r>
       <r>    5.2795   -0.0000 </r>
      </set>
      <set comment="kpoint 6">
       <r>  -22.3976    1.0000 </r>
       <r>  -10.6463    1.0000 </r>
       <r>   -8.2113    1.0000 </r>
       <r>   -7.1062    1.0000 </r>
       <r>   -6.6895    1.0000 </r>
       <r>   -6.6539    1.0000 </r>
       <r>   -6.4790    1.0000 </r>
       <r>   -6.3073    1.0000 </r>
       <r>   -6.2772    1.0000 </r>
       <r>   -5.9440    1.0000 </r>
       <r>   -5.9078    1.0000 </r>
       <r>   -5.8773    1.0000 </r>
       <r>   -5.7234    1.0000 </r>
       <r>   -5.6440    1.0000 </r>
       <r>   -5.6204    1.0000 </r>
       <r>   -5.4727    1.0000 </r>
       <r>   -5.4200    1.0000 </r>
       <r>   -5.3066    1.0000 </r>
       <r>   -5.2549    1.0000 </r>
       <r>   -5.2046    1.0000 </r>
       <r>   -5.0489    1.0000 </r>
       <r>   -4.9639    1.0000 </r>
       <r>   -4.7765    1.0000 </r>
       <r>   -4.7210    1.0000 </r>
       <r>   -4.5939    1.0000 </r>
       <r>   -4.5289    1.0000 </r>
       <r>   -4.5002    1.0000 </r>
       <r>   -4.2997    1.0000 </r>
       <r>   -4.2233    1.0000 </r>
       <r>   -4.1348    1.0000 </r>
       <r>   -4.0210    1.0000 </r>
       <r>   -3.9342    1.0000 </r>
       <r>   -3.8725    1.0000 </r>
       <r>   -3.6965    1.0000 </r>
       <r>   -3.6604    1.0000 </r>
       <r>   -3.6292    1.0000 </r>
       <r>   -3.5564    1.0000 </r>
       <r>   -3.4399    1.0000 </r>
       <r>   -3.3899    1.0000 </r>
       <r>   -3.3625    1.0000 </r>
       <r>   -3.3482    1.0000 </r>
       <r>   -3.2736    1.0000 </r>
       <r>   -3.2154    1.0000 </r>
       <r>   -3.1564    1.0000 </r>
       <r>   -3.1359    1.0000 </r>
       <r>   -3.0625    1.0000 </r>
       <r>   -2.9729    1.0000 </r>
       <r>   -2.9022    1.0000 </r>
       <r>   -2.8323    1.0000 </r>
       <r>   -2.8015    1.0000 </r>
       <r>   -2.7698    1.0000 </r>
       <r>   -2.5774    1.0000 </r>
       <r>   -2.5601    1.0000 </r>
       <r>   -2.4741    1.0000 </r>
       <r>   -2.3963    1.0000 </r>
       <r>   -2.3452    1.0000 </r>
       <r>   -2.3220    1.0000 </r>
       <r>   -2.3017    1.0000 </r>
       <r>   -2.1617    1.0000 </r>
       <r>   -2.1200    1.0000 </r>
       <r>   -2.0776    1.0000 </r>
       <r>   -2.0687    1.0000 </r>
       <r>   -2.0364    1.0000 </r>
       <r>   -1.9452    1.0000 </r>
       <r>   -1.7055    1.0000 </r>
       <r>   -1.6293    1.0000 </r>
       <r>   -1.5220    1.0000 </r>
       <r>   -1.4709    1.0000 </r>
       <r>   -1.4229    1.0000 </r>
       <r>   -1.3651    1.0000 </r>
       <r>   -1.1977    1.0000 </r>
       <r>   -1.1622    1.0000 </r>
       <r>   -1.1328    1.0000 </r>
       <r>   -1.0841    1.0000 </r>
       <r>   -1.0304    1.0000 </r>
       <r>   -0.8358    1.0000 </r>
       <r>   -0.6439    1.0018 </r>
       <r>   -0.6043    1.0039 </r>
       <r>   -0.5274    1.0136 </r>
       <r>   -0.4864    1.0223 </r>
       <r>   -0.4770    1.0245 </r>
       <r>   -0.4100    1.0354 </r>
       <r>   -0.3720    1.0292 </r>
       <r>   -0.3071    0.9666 </r>
       <r>   -0.1824    0.5814 </r>
       <r>   -0.1724    0.5392 </r>
       <r>   -0.0794    0.1777 </r>
       <r>   -0.0442    0.0824 </r>
       <r>    0.0082   -0.0031 </r>
       <r>    0.1573   -0.0230 </r>
       <r>    0.1934   -0.0151 </r>
       <r>    0.8102   -0.0000 </r>
       <r>    1.0279   -0.0000 </r>
       <r>    1.2069   -0.0000 </r>
       <r>    2.4336   -0.0000 </r>
       <r>    2.8205   -0.0000 </r>
       <r>    2.8603   -0.0000 </r>
       <r>    3.4350   -0.0000 </r>
       <r>    3.5409   -0.0000 </r>
       <r>    3.7450   -0.0000 </r>
       <r>    4.0029   -0.0000 </r>
       <r>    4.6613   -0.0000 </r>
       <r>    4.6790   -0.0000 </r>
       <r>    5.4835    0.0000 </r>
      </set>
      <set comment="kpoint 7">
       <r>  -22.3973    1.0000 </r>
       <r>  -10.5634    1.0000 </r>
       <r>   -7.3108    1.0000 </r>
       <r>   -7.1795    1.0000 </r>
       <r>   -6.7476    1.0000 </r>
       <r>   -6.6375    1.0000 </r>
       <r>   -6.4137    1.0000 </r>
       <r>   -6.1948    1.0000 </r>
       <r>   -6.1176    1.0000 </r>
       <r>   -5.9567    1.0000 </r>
       <r>   -5.5989    1.0000 </r>
       <r>   -5.4105    1.0000 </r>
       <r>   -5.3233    1.0000 </r>
       <r>   -5.2978    1.0000 </r>
       <r>   -5.2165    1.0000 </r>
       <r>   -5.1480    1.0000 </r>
       <r>   -5.0632    1.0000 </r>
       <r>   -5.0066    1.0000 </r>
       <r>   -4.9648    1.0000 </r>
       <r>   -4.7801    1.0000 </r>
       <r>   -4.7713    1.0000 </r>
       <r>   -4.7498    1.0000 </r>
       <r>   -4.7053    1.0000 </r>
       <r>   -4.6138    1.0000 </r>
       <r>   -4.5677    1.0000 </r>
       <r>   -4.4181    1.0000 </r>
       <r>   -4.3947    1.0000 </r>
       <r>   -4.3627    1.0000 </r>
       <r>   -4.3547    1.0000 </r>
       <r>   -4.3008    1.0000 </r>
       <r>   -4.2378    1.0000 </r>
       <r>   -4.2034    1.0000 </r>
       <r>   -4.1526    1.0000 </r>
       <r>   -3.9930    1.0000 </r>
       <r>   -3.8227    1.0000 </r>
       <r>   -3.7921    1.0000 </r>
       <r>   -3.7307    1.0000 </r>
       <r>   -3.7169    1.0000 </r>
       <r>   -3.6504    1.0000 </r>
       <r>   -3.6024    1.0000 </r>
       <r>   -3.5649    1.0000 </r>
       <r>   -3.5214    1.0000 </r>
       <r>   -3.5048    1.0000 </r>
       <r>   -3.4755    1.0000 </r>
       <r>   -3.3964    1.0000 </r>
       <r>   -3.2254    1.0000 </r>
       <r>   -3.1041    1.0000 </r>
       <r>   -3.0906    1.0000 </r>
       <r>   -2.9626    1.0000 </r>
       <r>   -2.9415    1.0000 </r>
       <r>   -2.8808    1.0000 </r>
       <r>   -2.8147    1.0000 </r>
       <r>   -2.7924    1.0000 </r>
       <r>   -2.7832    1.0000 </r>
       <r>   -2.6256    1.0000 </r>
       <r>   -2.5477    1.0000 </r>
       <r>   -2.3137    1.0000 </r>
       <r>   -2.2885    1.0000 </r>
       <r>   -2.2333    1.0000 </r>
       <r>   -2.1865    1.0000 </r>
       <r>   -2.1525    1.0000 </r>
       <r>   -2.0662    1.0000 </r>
       <r>   -2.0270    1.0000 </r>
       <r>   -1.8986    1.0000 </r>
       <r>   -1.8416    1.0000 </r>
       <r>   -1.7729    1.0000 </r>
       <r>   -1.6900    1.0000 </r>
       <r>   -1.6212    1.0000 </r>
       <r>   -1.5742    1.0000 </r>
       <r>   -1.4059    1.0000 </r>
       <r>   -1.3548    1.0000 </r>
       <r>   -1.3483    1.0000 </r>
       <r>   -1.2802    1.0000 </r>
       <r>   -1.2199    1.0000 </r>
       <r>   -1.1703    1.0000 </r>
       <r>   -1.0800    1.0000 </r>
       <r>   -0.9985    1.0000 </r>
       <r>   -0.9039    1.0000 </r>
       <r>   -0.8586    1.0000 </r>
       <r>   -0.7964    1.0000 </r>
       <r>   -0.6945    1.0006 </r>
       <r>   -0.5545    1.0092 </r>
       <r>   -0.4809    1.0236 </r>
       <r>   -0.4304    1.0338 </r>
       <r>   -0.4032    1.0354 </r>
       <r>   -0.3372    1.0060 </r>
       <r>   -0.2144    0.7092 </r>
       <r>   -0.1667    0.5154 </r>
       <r>    0.0277   -0.0197 </r>
       <r>    0.2055   -0.0128 </r>
       <r>    0.2318   -0.0087 </r>
       <r>    0.3107   -0.0020 </r>
       <r>    1.1087   -0.0000 </r>
       <r>    1.7495   -0.0000 </r>
       <r>    2.0123   -0.0000 </r>
       <r>    2.7950   -0.0000 </r>
       <r>    3.1679   -0.0000 </r>
       <r>    3.5157   -0.0000 </r>
       <r>    3.7219   -0.0000 </r>
       <r>    4.3840   -0.0000 </r>
       <r>    4.6246   -0.0000 </r>
       <r>    5.0895   -0.0000 </r>
       <r>    5.3344    0.0000 </r>
       <r>    5.4856    0.0000 </r>
      </set>
      <set comment="kpoint 8">
       <r>  -22.3976    1.0000 </r>
       <r>  -10.6463    1.0000 </r>
       <r>   -8.2113    1.0000 </r>
       <r>   -7.1062    1.0000 </r>
       <r>   -6.6895    1.0000 </r>
       <r>   -6.6539    1.0000 </r>
       <r>   -6.4791    1.0000 </r>
       <r>   -6.3074    1.0000 </r>
       <r>   -6.2772    1.0000 </r>
       <r>   -5.9440    1.0000 </r>
       <r>   -5.9078    1.0000 </r>
       <r>   -5.8773    1.0000 </r>
       <r>   -5.7234    1.0000 </r>
       <r>   -5.6440    1.0000 </r>
       <r>   -5.6204    1.0000 </r>
       <r>   -5.4728    1.0000 </r>
       <r>   -5.4200    1.0000 </r>
       <r>   -5.3066    1.0000 </r>
       <r>   -5.2549    1.0000 </r>
       <r>   -5.2046    1.0000 </r>
       <r>   -5.0490    1.0000 </r>
       <r>   -4.9639    1.0000 </r>
       <r>   -4.7765    1.0000 </r>
       <r>   -4.7209    1.0000 </r>
       <r>   -4.5939    1.0000 </r>
       <r>   -4.5289    1.0000 </r>
       <r>   -4.5002    1.0000 </r>
       <r>   -4.2997    1.0000 </r>
       <r>   -4.2233    1.0000 </r>
       <r>   -4.1348    1.0000 </r>
       <r>   -4.0210    1.0000 </r>
       <r>   -3.9342    1.0000 </r>
       <r>   -3.8725    1.0000 </r>
       <r>   -3.6966    1.0000 </r>
       <r>   -3.6603    1.0000 </r>
       <r>   -3.6291    1.0000 </r>
       <r>   -3.5564    1.0000 </r>
       <r>   -3.4399    1.0000 </r>
       <r>   -3.3900    1.0000 </r>
       <r>   -3.3625    1.0000 </r>
       <r>   -3.3482    1.0000 </r>
       <r>   -3.2736    1.0000 </r>
       <r>   -3.2153    1.0000 </r>
       <r>   -3.1565    1.0000 </r>
       <r>   -3.1359    1.0000 </r>
       <r>   -3.0625    1.0000 </r>
       <r>   -2.9730    1.0000 </r>
       <r>   -2.9023    1.0000 </r>
       <r>   -2.8322    1.0000 </r>
       <r>   -2.8015    1.0000 </r>
       <r>   -2.7698    1.0000 </r>
       <r>   -2.5774    1.0000 </r>
       <r>   -2.5602    1.0000 </r>
       <r>   -2.4741    1.0000 </r>
       <r>   -2.3963    1.0000 </r>
       <r>   -2.3452    1.0000 </r>
       <r>   -2.3219    1.0000 </r>
       <r>   -2.3017    1.0000 </r>
       <r>   -2.1618    1.0000 </r>
       <r>   -2.1200    1.0000 </r>
       <r>   -2.0775    1.0000 </r>
       <r>   -2.0688    1.0000 </r>
       <r>   -2.0364    1.0000 </r>
       <r>   -1.9452    1.0000 </r>
       <r>   -1.7055    1.0000 </r>
       <r>   -1.6293    1.0000 </r>
       <r>   -1.5219    1.0000 </r>
       <r>   -1.4709    1.0000 </r>
       <r>   -1.4229    1.0000 </r>
       <r>   -1.3651    1.0000 </r>
       <r>   -1.1977    1.0000 </r>
       <r>   -1.1623    1.0000 </r>
       <r>   -1.1327    1.0000 </r>
       <r>   -1.0841    1.0000 </r>
       <r>   -1.0305    1.0000 </r>
       <r>   -0.8358    1.0000 </r>
       <r>   -0.6439    1.0018 </r>
       <r>   -0.6043    1.0039 </r>
       <r>   -0.5274    1.0136 </r>
       <r>   -0.4864    1.0223 </r>
       <r>   -0.4770    1.0245 </r>
       <r>   -0.4098    1.0354 </r>
       <r>   -0.3722    1.0292 </r>
       <r>   -0.3071    0.9667 </r>
       <r>   -0.1824    0.5811 </r>
       <r>   -0.1724    0.5394 </r>
       <r>   -0.0793    0.1776 </r>
       <r>   -0.0441    0.0823 </r>
       <r>    0.0082   -0.0032 </r>
       <r>    0.1574   -0.0230 </r>
       <r>    0.1934   -0.0151 </r>
       <r>    0.8101   -0.0000 </r>
       <r>    1.0279   -0.0000 </r>
       <r>    1.2069   -0.0000 </r>
       <r>    2.4335   -0.0000 </r>
       <r>    2.8206   -0.0000 </r>
       <r>    2.8603   -0.0000 </r>
       <r>    3.4350   -0.0000 </r>
       <r>    3.5408   -0.0000 </r>
       <r>    3.7449   -0.0000 </r>
       <r>    4.0028   -0.0000 </r>
       <r>    4.6614   -0.0000 </r>
       <r>    4.6793   -0.0000 </r>
       <r>    5.4835    0.0000 </r>
      </set>
      <set comment="kpoint 9">
       <r>  -22.3977    1.0000 </r>
       <r>  -10.6146    1.0000 </r>
       <r>   -7.9567    1.0000 </r>
       <r>   -7.0745    1.0000 </r>
       <r>   -6.9010    1.0000 </r>
       <r>   -6.6270    1.0000 </r>
       <r>   -6.4611    1.0000 </r>
       <r>   -6.3839    1.0000 </r>
       <r>   -6.0753    1.0000 </r>
       <r>   -5.7833    1.0000 </r>
       <r>   -5.7114    1.0000 </r>
       <r>   -5.6898    1.0000 </r>
       <r>   -5.6486    1.0000 </r>
       <r>   -5.5767    1.0000 </r>
       <r>   -5.5617    1.0000 </r>
       <r>   -5.4153    1.0000 </r>
       <r>   -5.2214    1.0000 </r>
       <r>   -5.1912    1.0000 </r>
       <r>   -5.1619    1.0000 </r>
       <r>   -5.0785    1.0000 </r>
       <r>   -4.9536    1.0000 </r>
       <r>   -4.9154    1.0000 </r>
       <r>   -4.6742    1.0000 </r>
       <r>   -4.5882    1.0000 </r>
       <r>   -4.5375    1.0000 </r>
       <r>   -4.4658    1.0000 </r>
       <r>   -4.4545    1.0000 </r>
       <r>   -4.4031    1.0000 </r>
       <r>   -4.2011    1.0000 </r>
       <r>   -4.1572    1.0000 </r>
       <r>   -4.0984    1.0000 </r>
       <r>   -4.0343    1.0000 </r>
       <r>   -3.8616    1.0000 </r>
       <r>   -3.7897    1.0000 </r>
       <r>   -3.7731    1.0000 </r>
       <r>   -3.7282    1.0000 </r>
       <r>   -3.6216    1.0000 </r>
       <r>   -3.5423    1.0000 </r>
       <r>   -3.5404    1.0000 </r>
       <r>   -3.4127    1.0000 </r>
       <r>   -3.3434    1.0000 </r>
       <r>   -3.2532    1.0000 </r>
       <r>   -3.1775    1.0000 </r>
       <r>   -3.1537    1.0000 </r>
       <r>   -2.9794    1.0000 </r>
       <r>   -2.9630    1.0000 </r>
       <r>   -2.9389    1.0000 </r>
       <r>   -2.9284    1.0000 </r>
       <r>   -2.8716    1.0000 </r>
       <r>   -2.8309    1.0000 </r>
       <r>   -2.8193    1.0000 </r>
       <r>   -2.7045    1.0000 </r>
       <r>   -2.6489    1.0000 </r>
       <r>   -2.6098    1.0000 </r>
       <r>   -2.6058    1.0000 </r>
       <r>   -2.5116    1.0000 </r>
       <r>   -2.4022    1.0000 </r>
       <r>   -2.3915    1.0000 </r>
       <r>   -2.2809    1.0000 </r>
       <r>   -2.2243    1.0000 </r>
       <r>   -2.1843    1.0000 </r>
       <r>   -2.1389    1.0000 </r>
       <r>   -2.0807    1.0000 </r>
       <r>   -1.9159    1.0000 </r>
       <r>   -1.7621    1.0000 </r>
       <r>   -1.7160    1.0000 </r>
       <r>   -1.6543    1.0000 </r>
       <r>   -1.6119    1.0000 </r>
       <r>   -1.5010    1.0000 </r>
       <r>   -1.4507    1.0000 </r>
       <r>   -1.4299    1.0000 </r>
       <r>   -1.4221    1.0000 </r>
       <r>   -1.2955    1.0000 </r>
       <r>   -1.2765    1.0000 </r>
       <r>   -1.2093    1.0000 </r>
       <r>   -1.1719    1.0000 </r>
       <r>   -1.1041    1.0000 </r>
       <r>   -1.0030    1.0000 </r>
       <r>   -0.8329    1.0000 </r>
       <r>   -0.6933    1.0006 </r>
       <r>   -0.5847    1.0056 </r>
       <r>   -0.5619    1.0082 </r>
       <r>   -0.4071    1.0355 </r>
       <r>   -0.2218    0.7367 </r>
       <r>   -0.2114    0.6979 </r>
       <r>   -0.1956    0.6354 </r>
       <r>   -0.1198    0.3216 </r>
       <r>    0.0693   -0.0348 </r>
       <r>    0.1112   -0.0328 </r>
       <r>    0.2385   -0.0078 </r>
       <r>    1.0337   -0.0000 </r>
       <r>    1.6079   -0.0000 </r>
       <r>    1.6612   -0.0000 </r>
       <r>    1.8729   -0.0000 </r>
       <r>    1.9519   -0.0000 </r>
       <r>    2.3079   -0.0000 </r>
       <r>    2.8071   -0.0000 </r>
       <r>    2.8135   -0.0000 </r>
       <r>    3.3089   -0.0000 </r>
       <r>    4.0617   -0.0000 </r>
       <r>    4.1465   -0.0000 </r>
       <r>    4.7665   -0.0000 </r>
       <r>    5.4056    0.0000 </r>
       <r>    5.9560    0.0000 </r>
      </set>
      <set comment="kpoint 10">
       <r>  -22.3976    1.0000 </r>
       <r>  -10.6463    1.0000 </r>
       <r>   -8.2113    1.0000 </r>
       <r>   -7.1062    1.0000 </r>
       <r>   -6.6895    1.0000 </r>
       <r>   -6.6539    1.0000 </r>
       <r>   -6.4790    1.0000 </r>
       <r>   -6.3073    1.0000 </r>
       <r>   -6.2772    1.0000 </r>
       <r>   -5.9440    1.0000 </r>
       <r>   -5.9078    1.0000 </r>
       <r>   -5.8773    1.0000 </r>
       <r>   -5.7234    1.0000 </r>
       <r>   -5.6440    1.0000 </r>
       <r>   -5.6204    1.0000 </r>
       <r>   -5.4728    1.0000 </r>
       <r>   -5.4200    1.0000 </r>
       <r>   -5.3066    1.0000 </r>
       <r>   -5.2549    1.0000 </r>
       <r>   -5.2045    1.0000 </r>
       <r>   -5.0489    1.0000 </r>
       <r>   -4.9639    1.0000 </r>
       <r>   -4.7765    1.0000 </r>
       <r>   -4.7210    1.0000 </r>
       <r>   -4.5939    1.0000 </r>
       <r>   -4.5289    1.0000 </r>
       <r>   -4.5002    1.0000 </r>
       <r>   -4.2997    1.0000 </r>
       <r>   -4.2233    1.0000 </r>
       <r>   -4.1348    1.0000 </r>
       <r>   -4.0210    1.0000 </r>
       <r>   -3.9342    1.0000 </r>
       <r>   -3.8725    1.0000 </r>
       <r>   -3.6966    1.0000 </r>
       <r>   -3.6603    1.0000 </r>
       <r>   -3.6291    1.0000 </r>
       <r>   -3.5564    1.0000 </r>
       <r>   -3.4399    1.0000 </r>
       <r>   -3.3900    1.0000 </r>
       <r>   -3.3625    1.0000 </r>
       <r>   -3.3482    1.0000 </r>
       <r>   -3.2736    1.0000 </r>
       <r>   -3.2153    1.0000 </r>
       <r>   -3.1564    1.0000 </r>
       <r>   -3.1359    1.0000 </r>
       <r>   -3.0625    1.0000 </r>
       <r>   -2.9729    1.0000 </r>
       <r>   -2.9022    1.0000 </r>
       <r>   -2.8323    1.0000 </r>
       <r>   -2.8015    1.0000 </r>
       <r>   -2.7698    1.0000 </r>
       <r>   -2.5774    1.0000 </r>
       <r>   -2.5601    1.0000 </r>
       <r>   -2.4742    1.0000 </r>
       <r>   -2.3963    1.0000 </r>
       <r>   -2.3452    1.0000 </r>
       <r>   -2.3220    1.0000 </r>
       <r>   -2.3017    1.0000 </r>
       <r>   -2.1618    1.0000 </r>
       <r>   -2.1200    1.0000 </r>
       <r>   -2.0776    1.0000 </r>
       <r>   -2.0688    1.0000 </r>
       <r>   -2.0364    1.0000 </r>
       <r>   -1.9452    1.0000 </r>
       <r>   -1.7055    1.0000 </r>
       <r>   -1.6293    1.0000 </r>
       <r>   -1.5219    1.0000 </r>
       <r>   -1.4709    1.0000 </r>
       <r>   -1.4230    1.0000 </r>
       <r>   -1.3651    1.0000 </r>
       <r>   -1.1977    1.0000 </r>
       <r>   -1.1623    1.0000 </r>
       <r>   -1.1327    1.0000 </r>
       <r>   -1.0841    1.0000 </r>
       <r>   -1.0305    1.0000 </r>
       <r>   -0.8358    1.0000 </r>
       <r>   -0.6439    1.0018 </r>
       <r>   -0.6043    1.0039 </r>
       <r>   -0.5274    1.0136 </r>
       <r>   -0.4864    1.0223 </r>
       <r>   -0.4770    1.0245 </r>
       <r>   -0.4099    1.0354 </r>
       <r>   -0.3721    1.0292 </r>
       <r>   -0.3071    0.9667 </r>
       <r>   -0.1824    0.5812 </r>
       <r>   -0.1724    0.5393 </r>
       <r>   -0.0793    0.1777 </r>
       <r>   -0.0442    0.0824 </r>
       <r>    0.0082   -0.0032 </r>
       <r>    0.1573   -0.0230 </r>
       <r>    0.1934   -0.0151 </r>
       <r>    0.8102   -0.0000 </r>
       <r>    1.0279   -0.0000 </r>
       <r>    1.2069   -0.0000 </r>
       <r>    2.4336   -0.0000 </r>
       <r>    2.8205   -0.0000 </r>
       <r>    2.8603   -0.0000 </r>
       <r>    3.4350   -0.0000 </r>
       <r>    3.5409   -0.0000 </r>
       <r>    3.7451   -0.0000 </r>
       <r>    4.0029   -0.0000 </r>
       <r>    4.6613   -0.0000 </r>
       <r>    4.6790   -0.0000 </r>
       <r>    5.4835    0.0000 </r>
      </set>
      <set comment="kpoint 11">
       <r>  -22.3977    1.0000 </r>
       <r>  -10.6146    1.0000 </r>
       <r>   -7.9567    1.0000 </r>
       <r>   -7.0745    1.0000 </r>
       <r>   -6.9011    1.0000 </r>
       <r>   -6.6270    1.0000 </r>
       <r>   -6.4611    1.0000 </r>
       <r>   -6.3838    1.0000 </r>
       <r>   -6.0753    1.0000 </r>
       <r>   -5.7834    1.0000 </r>
       <r>   -5.7114    1.0000 </r>
       <r>   -5.6898    1.0000 </r>
       <r>   -5.6486    1.0000 </r>
       <r>   -5.5767    1.0000 </r>
       <r>   -5.5617    1.0000 </r>
       <r>   -5.4153    1.0000 </r>
       <r>   -5.2214    1.0000 </r>
       <r>   -5.1912    1.0000 </r>
       <r>   -5.1619    1.0000 </r>
       <r>   -5.0785    1.0000 </r>
       <r>   -4.9536    1.0000 </r>
       <r>   -4.9154    1.0000 </r>
       <r>   -4.6742    1.0000 </r>
       <r>   -4.5883    1.0000 </r>
       <r>   -4.5375    1.0000 </r>
       <r>   -4.4658    1.0000 </r>
       <r>   -4.4544    1.0000 </r>
       <r>   -4.4031    1.0000 </r>
       <r>   -4.2010    1.0000 </r>
       <r>   -4.1573    1.0000 </r>
       <r>   -4.0984    1.0000 </r>
       <r>   -4.0343    1.0000 </r>
       <r>   -3.8616    1.0000 </r>
       <r>   -3.7896    1.0000 </r>
       <r>   -3.7731    1.0000 </r>
       <r>   -3.7281    1.0000 </r>
       <r>   -3.6216    1.0000 </r>
       <r>   -3.5423    1.0000 </r>
       <r>   -3.5404    1.0000 </r>
       <r>   -3.4128    1.0000 </r>
       <r>   -3.3434    1.0000 </r>
       <r>   -3.2532    1.0000 </r>
       <r>   -3.1774    1.0000 </r>
       <r>   -3.1537    1.0000 </r>
       <r>   -2.9795    1.0000 </r>
       <r>   -2.9630    1.0000 </r>
       <r>   -2.9389    1.0000 </r>
       <r>   -2.9284    1.0000 </r>
       <r>   -2.8715    1.0000 </r>
       <r>   -2.8310    1.0000 </r>
       <r>   -2.8193    1.0000 </r>
       <r>   -2.7045    1.0000 </r>
       <r>   -2.6489    1.0000 </r>
       <r>   -2.6098    1.0000 </r>
       <r>   -2.6059    1.0000 </r>
       <r>   -2.5116    1.0000 </r>
       <r>   -2.4022    1.0000 </r>
       <r>   -2.3916    1.0000 </r>
       <r>   -2.2809    1.0000 </r>
       <r>   -2.2243    1.0000 </r>
       <r>   -2.1844    1.0000 </r>
       <r>   -2.1389    1.0000 </r>
       <r>   -2.0806    1.0000 </r>
       <r>   -1.9159    1.0000 </r>
       <r>   -1.7620    1.0000 </r>
       <r>   -1.7161    1.0000 </r>
       <r>   -1.6543    1.0000 </r>
       <r>   -1.6119    1.0000 </r>
       <r>   -1.5010    1.0000 </r>
       <r>   -1.4506    1.0000 </r>
       <r>   -1.4298    1.0000 </r>
       <r>   -1.4221    1.0000 </r>
       <r>   -1.2955    1.0000 </r>
       <r>   -1.2765    1.0000 </r>
       <r>   -1.2093    1.0000 </r>
       <r>   -1.1720    1.0000 </r>
       <r>   -1.1041    1.0000 </r>
       <r>   -1.0030    1.0000 </r>
       <r>   -0.8329    1.0000 </r>
       <r>   -0.6933    1.0006 </r>
       <r>   -0.5848    1.0055 </r>
       <r>   -0.5618    1.0082 </r>
       <r>   -0.4070    1.0355 </r>
       <r>   -0.2221    0.7379 </r>
       <r>   -0.2113    0.6977 </r>
       <r>   -0.1954    0.6346 </r>
       <r>   -0.1199    0.3219 </r>
       <r>    0.0694   -0.0348 </r>
       <r>    0.1111   -0.0328 </r>
       <r>    0.2384   -0.0078 </r>
       <r>    1.0338   -0.0000 </r>
       <r>    1.6079   -0.0000 </r>
       <r>    1.6612   -0.0000 </r>
       <r>    1.8729   -0.0000 </r>
       <r>    1.9519   -0.0000 </r>
       <r>    2.3080   -0.0000 </r>
       <r>    2.8070   -0.0000 </r>
       <r>    2.8136   -0.0000 </r>
       <r>    3.3091   -0.0000 </r>
       <r>    4.0614   -0.0000 </r>
       <r>    4.1466   -0.0000 </r>
       <r>    4.7665   -0.0000 </r>
       <r>    5.4054    0.0000 </r>
       <r>    5.9560    0.0000 </r>
      </set>
      <set comment="kpoint 12">
       <r>  -22.3973    1.0000 </r>
       <r>  -10.5634    1.0000 </r>
       <r>   -7.3108    1.0000 </r>
       <r>   -7.1795    1.0000 </r>
       <r>   -6.7477    1.0000 </r>
       <r>   -6.6375    1.0000 </r>
       <r>   -6.4137    1.0000 </r>
       <r>   -6.1948    1.0000 </r>
       <r>   -6.1176    1.0000 </r>
       <r>   -5.9567    1.0000 </r>
       <r>   -5.5989    1.0000 </r>
       <r>   -5.4104    1.0000 </r>
       <r>   -5.3233    1.0000 </r>
       <r>   -5.2978    1.0000 </r>
       <r>   -5.2165    1.0000 </r>
       <r>   -5.1480    1.0000 </r>
       <r>   -5.0632    1.0000 </r>
       <r>   -5.0067    1.0000 </r>
       <r>   -4.9648    1.0000 </r>
       <r>   -4.7801    1.0000 </r>
       <r>   -4.7713    1.0000 </r>
       <r>   -4.7498    1.0000 </r>
       <r>   -4.7053    1.0000 </r>
       <r>   -4.6138    1.0000 </r>
       <r>   -4.5677    1.0000 </r>
       <r>   -4.4181    1.0000 </r>
       <r>   -4.3946    1.0000 </r>
       <r>   -4.3627    1.0000 </r>
       <r>   -4.3547    1.0000 </r>
       <r>   -4.3008    1.0000 </r>
       <r>   -4.2378    1.0000 </r>
       <r>   -4.2034    1.0000 </r>
       <r>   -4.1526    1.0000 </r>
       <r>   -3.9930    1.0000 </r>
       <r>   -3.8227    1.0000 </r>
       <r>   -3.7921    1.0000 </r>
       <r>   -3.7307    1.0000 </r>
       <r>   -3.7170    1.0000 </r>
       <r>   -3.6504    1.0000 </r>
       <r>   -3.6024    1.0000 </r>
       <r>   -3.5648    1.0000 </r>
       <r>   -3.5214    1.0000 </r>
       <r>   -3.5048    1.0000 </r>
       <r>   -3.4754    1.0000 </r>
       <r>   -3.3964    1.0000 </r>
       <r>   -3.2254    1.0000 </r>
       <r>   -3.1041    1.0000 </r>
       <r>   -3.0906    1.0000 </r>
       <r>   -2.9626    1.0000 </r>
       <r>   -2.9415    1.0000 </r>
       <r>   -2.8810    1.0000 </r>
       <r>   -2.8147    1.0000 </r>
       <r>   -2.7924    1.0000 </r>
       <r>   -2.7832    1.0000 </r>
       <r>   -2.6256    1.0000 </r>
       <r>   -2.5477    1.0000 </r>
       <r>   -2.3137    1.0000 </r>
       <r>   -2.2885    1.0000 </r>
       <r>   -2.2333    1.0000 </r>
       <r>   -2.1865    1.0000 </r>
       <r>   -2.1525    1.0000 </r>
       <r>   -2.0662    1.0000 </r>
       <r>   -2.0270    1.0000 </r>
       <r>   -1.8986    1.0000 </r>
       <r>   -1.8416    1.0000 </r>
       <r>   -1.7730    1.0000 </r>
       <r>   -1.6900    1.0000 </r>
       <r>   -1.6212    1.0000 </r>
       <r>   -1.5741    1.0000 </r>
       <r>   -1.4059    1.0000 </r>
       <r>   -1.3547    1.0000 </r>
       <r>   -1.3482    1.0000 </r>
       <r>   -1.2803    1.0000 </r>
       <r>   -1.2199    1.0000 </r>
       <r>   -1.1703    1.0000 </r>
       <r>   -1.0800    1.0000 </r>
       <r>   -0.9985    1.0000 </r>
       <r>   -0.9040    1.0000 </r>
       <r>   -0.8586    1.0000 </r>
       <r>   -0.7964    1.0000 </r>
       <r>   -0.6945    1.0006 </r>
       <r>   -0.5545    1.0092 </r>
       <r>   -0.4809    1.0236 </r>
       <r>   -0.4305    1.0338 </r>
       <r>   -0.4032    1.0354 </r>
       <r>   -0.3372    1.0060 </r>
       <r>   -0.2143    0.7090 </r>
       <r>   -0.1668    0.5155 </r>
       <r>    0.0277   -0.0197 </r>
       <r>    0.2055   -0.0128 </r>
       <r>    0.2318   -0.0087 </r>
       <r>    0.3107   -0.0020 </r>
       <r>    1.1087   -0.0000 </r>
       <r>    1.7495   -0.0000 </r>
       <r>    2.0123   -0.0000 </r>
       <r>    2.7950   -0.0000 </r>
       <r>    3.1680   -0.0000 </r>
       <r>    3.5156   -0.0000 </r>
       <r>    3.7220   -0.0000 </r>
       <r>    4.3840   -0.0000 </r>
       <r>    4.6246   -0.0000 </r>
       <r>    5.0889   -0.0000 </r>
       <r>    5.3343    0.0000 </r>
       <r>    5.4860    0.0000 </r>
      </set>
      <set comment="kpoint 13">
       <r>  -22.3973    1.0000 </r>
       <r>  -10.5634    1.0000 </r>
       <r>   -7.3107    1.0000 </r>
       <r>   -7.1796    1.0000 </r>
       <r>   -6.7476    1.0000 </r>
       <r>   -6.6375    1.0000 </r>
       <r>   -6.4137    1.0000 </r>
       <r>   -6.1949    1.0000 </r>
       <r>   -6.1176    1.0000 </r>
       <r>   -5.9567    1.0000 </r>
       <r>   -5.5989    1.0000 </r>
       <r>   -5.4104    1.0000 </r>
       <r>   -5.3233    1.0000 </r>
       <r>   -5.2979    1.0000 </r>
       <r>   -5.2165    1.0000 </r>
       <r>   -5.1481    1.0000 </r>
       <r>   -5.0632    1.0000 </r>
       <r>   -5.0066    1.0000 </r>
       <r>   -4.9648    1.0000 </r>
       <r>   -4.7801    1.0000 </r>
       <r>   -4.7713    1.0000 </r>
       <r>   -4.7498    1.0000 </r>
       <r>   -4.7053    1.0000 </r>
       <r>   -4.6138    1.0000 </r>
       <r>   -4.5677    1.0000 </r>
       <r>   -4.4181    1.0000 </r>
       <r>   -4.3946    1.0000 </r>
       <r>   -4.3627    1.0000 </r>
       <r>   -4.3547    1.0000 </r>
       <r>   -4.3008    1.0000 </r>
       <r>   -4.2378    1.0000 </r>
       <r>   -4.2034    1.0000 </r>
       <r>   -4.1526    1.0000 </r>
       <r>   -3.9930    1.0000 </r>
       <r>   -3.8228    1.0000 </r>
       <r>   -3.7921    1.0000 </r>
       <r>   -3.7307    1.0000 </r>
       <r>   -3.7169    1.0000 </r>
       <r>   -3.6504    1.0000 </r>
       <r>   -3.6024    1.0000 </r>
       <r>   -3.5648    1.0000 </r>
       <r>   -3.5214    1.0000 </r>
       <r>   -3.5049    1.0000 </r>
       <r>   -3.4755    1.0000 </r>
       <r>   -3.3963    1.0000 </r>
       <r>   -3.2255    1.0000 </r>
       <r>   -3.1042    1.0000 </r>
       <r>   -3.0905    1.0000 </r>
       <r>   -2.9626    1.0000 </r>
       <r>   -2.9416    1.0000 </r>
       <r>   -2.8808    1.0000 </r>
       <r>   -2.8146    1.0000 </r>
       <r>   -2.7924    1.0000 </r>
       <r>   -2.7832    1.0000 </r>
       <r>   -2.6256    1.0000 </r>
       <r>   -2.5477    1.0000 </r>
       <r>   -2.3138    1.0000 </r>
       <r>   -2.2884    1.0000 </r>
       <r>   -2.2333    1.0000 </r>
[...]
        <r>  0.0001  0.0004  0.0001 </r>
        <r>  0.0000  0.0063  0.0000 </r>
       </set>
       <set comment="band 83">
        <r>  0.0003  0.0005  0.0839 </r>
        <r>  0.0028  0.0019  0.1058 </r>
        <r>  0.0007  0.0002  0.0354 </r>
        <r>  0.0007  0.0002  0.0354 </r>
        <r>  0.0000  0.0003  0.0513 </r>
        <r>  0.0000  0.0003  0.0513 </r>
        <r>  0.0000  0.0003  0.0439 </r>
        <r>  0.0000  0.0012  0.0694 </r>
        <r>  0.0001  0.0008  0.0604 </r>
        <r>  0.0001  0.0000  0.0372 </r>
        <r>  0.0004  0.0001  0.0326 </r>
        <r>  0.0004  0.0001  0.0326 </r>
        <r>  0.0002  0.0027  0.1001 </r>
        <r>  0.0003  0.0025  0.0791 </r>
        <r>  0.0004  0.0031  0.0445 </r>
        <r>  0.0004  0.0031  0.0445 </r>
        <r>  0.0004  0.0024  0.0004 </r>
        <r>  0.0000  0.0084  0.0000 </r>
       </set>
       <set comment="band 84">
        <r>  0.0002  0.0001  0.0117 </r>
        <r>  0.0003  0.0007  0.0287 </r>
        <r>  0.0006  0.0010  0.1103 </r>
        <r>  0.0006  0.0010  0.1104 </r>
        <r>  0.0000  0.0001  0.0247 </r>
        <r>  0.0000  0.0001  0.0246 </r>
        <r>  0.0000  0.0001  0.1634 </r>
        <r>  0.0000  0.0002  0.0046 </r>
        <r>  0.0002  0.0001  0.0358 </r>
        <r>  0.0000  0.0001  0.0254 </r>
        <r>  0.0001  0.0005  0.1369 </r>
        <r>  0.0001  0.0005  0.1369 </r>
        <r>  0.0000  0.0006  0.0072 </r>
        <r>  0.0009  0.0007  0.0378 </r>
        <r>  0.0002  0.0008  0.0409 </r>
        <r>  0.0002  0.0008  0.0409 </r>
        <r>  0.0000  0.0001  0.0001 </r>
        <r>  0.0000  0.0003  0.0000 </r>
       </set>
       <set comment="band 85">
        <r>  0.0006  0.0020  0.0929 </r>
        <r>  0.0002  0.0009  0.0870 </r>
        <r>  0.0015  0.0010  0.0288 </r>
        <r>  0.0015  0.0010  0.0287 </r>
        <r>  0.0001  0.0003  0.1449 </r>
        <r>  0.0001  0.0003  0.1450 </r>
        <r>  0.0000  0.0004  0.0154 </r>
        <r>  0.0000  0.0002  0.0328 </r>
        <r>  0.0004  0.0004  0.0939 </r>
        <r>  0.0005  0.0005  0.1068 </r>
        <r>  0.0003  0.0004  0.0332 </r>
        <r>  0.0003  0.0004  0.0332 </r>
        <r>  0.0001  0.0014  0.0194 </r>
        <r>  0.0004  0.0010  0.0080 </r>
        <r>  0.0004  0.0001  0.0265 </r>
        <r>  0.0004  0.0001  0.0265 </r>
        <r>  0.0000  0.0004  0.0001 </r>
        <r>  0.0000  0.0026  0.0000 </r>
       </set>
       <set comment="band 86">
        <r>  0.0008  0.0013  0.0812 </r>
        <r>  0.0000  0.0003  0.0488 </r>
        <r>  0.0001  0.0004  0.0594 </r>
        <r>  0.0001  0.0004  0.0594 </r>
        <r>  0.0001  0.0000  0.0500 </r>
        <r>  0.0001  0.0000  0.0501 </r>
        <r>  0.0000  0.0005  0.0734 </r>
        <r>  0.0003  0.0002  0.1267 </r>
        <r>  0.0000  0.0002  0.0169 </r>
        <r>  0.0001  0.0001  0.0839 </r>
        <r>  0.0002  0.0002  0.0801 </r>
        <r>  0.0002  0.0002  0.0801 </r>
        <r>  0.0010  0.0002  0.0701 </r>
        <r>  0.0000  0.0003  0.0210 </r>
        <r>  0.0001  0.0008  0.0217 </r>
        <r>  0.0001  0.0008  0.0217 </r>
        <r>  0.0002  0.0002  0.0000 </r>
        <r>  0.0000  0.0003  0.0000 </r>
       </set>
       <set comment="band 87">
        <r>  0.0000  0.0000  0.0090 </r>
        <r>  0.0000  0.0000  0.0159 </r>
        <r>  0.0005  0.0009  0.0866 </r>
        <r>  0.0005  0.0009  0.0866 </r>
        <r>  0.0002  0.0010  0.2169 </r>
        <r>  0.0002  0.0010  0.2169 </r>
        <r>  0.0000  0.0000  0.0172 </r>
        <r>  0.0000  0.0000  0.0146 </r>
        <r>  0.0000  0.0000  0.0178 </r>
        <r>  0.0000  0.0000  0.0109 </r>
        <r>  0.0000  0.0007  0.1073 </r>
        <r>  0.0000  0.0007  0.1072 </r>
        <r>  0.0000  0.0000  0.0031 </r>
        <r>  0.0000  0.0000  0.0035 </r>
        <r>  0.0001  0.0004  0.0182 </r>
        <r>  0.0001  0.0004  0.0182 </r>
        <r>  0.0000  0.0003  0.0001 </r>
        <r>  0.0000  0.0020  0.0000 </r>
       </set>
       <set comment="band 88">
        <r>  0.0004  0.0006  0.0377 </r>
        <r>  0.0005  0.0004  0.0511 </r>
        <r>  0.0008  0.0004  0.0094 </r>
        <r>  0.0008  0.0004  0.0094 </r>
        <r>  0.0000  0.0002  0.0198 </r>
        <r>  0.0000  0.0002  0.0198 </r>
        <r>  0.0005  0.0008  0.1575 </r>
        <r>  0.0001  0.0010  0.1408 </r>
        <r>  0.0013  0.0010  0.1618 </r>
        <r>  0.0000  0.0015  0.1959 </r>
        <r>  0.0002  0.0003  0.0159 </r>
        <r>  0.0002  0.0003  0.0159 </r>
        <r>  0.0004  0.0005  0.0361 </r>
        <r>  0.0002  0.0002  0.0446 </r>
        <r>  0.0005  0.0007  0.0121 </r>
        <r>  0.0005  0.0007  0.0121 </r>
        <r>  0.0002  0.0004  0.0001 </r>
        <r>  0.0000  0.0007  0.0000 </r>
       </set>
       <set comment="band 89">
        <r>  0.0001  0.0024  0.0378 </r>
        <r>  0.0010  0.0026  0.0388 </r>
        <r>  0.0081  0.0029  0.0285 </r>
        <r>  0.0081  0.0029  0.0285 </r>
        <r>  0.0001  0.0006  0.0351 </r>
        <r>  0.0001  0.0006  0.0351 </r>
        <r>  0.0004  0.0005  0.0443 </r>
        <r>  0.0012  0.0025  0.0361 </r>
        <r>  0.0087  0.0012  0.0437 </r>
        <r>  0.0004  0.0030  0.0349 </r>
        <r>  0.0027  0.0030  0.0803 </r>
        <r>  0.0027  0.0030  0.0803 </r>
        <r>  0.0020  0.0021  0.1128 </r>
        <r>  0.0002  0.0033  0.0830 </r>
        <r>  0.0048  0.0061  0.0438 </r>
        <r>  0.0048  0.0061  0.0438 </r>
        <r>  0.0035  0.0063  0.0007 </r>
        <r>  0.0002  0.0116  0.0000 </r>
       </set>
       <set comment="band 90">
        <r>  0.0021  0.0024  0.0261 </r>
        <r>  0.0005  0.0013  0.0218 </r>
        <r>  0.0078  0.0021  0.0132 </r>
        <r>  0.0078  0.0021  0.0132 </r>
        <r>  0.0012  0.0016  0.0592 </r>
        <r>  0.0012  0.0016  0.0592 </r>
        <r>  0.0054  0.0031  0.0157 </r>
        <r>  0.0003  0.0019  0.0308 </r>
        <r>  0.0002  0.0060  0.0564 </r>
        <r>  0.0135  0.0030  0.0518 </r>
        <r>  0.0056  0.0046  0.0750 </r>
        <r>  0.0056  0.0046  0.0750 </r>
        <r>  0.0013  0.0066  0.0831 </r>
        <r>  0.0076  0.0044  0.0450 </r>
        <r>  0.0132  0.0060  0.0603 </r>
        <r>  0.0132  0.0060  0.0603 </r>
        <r>  0.0004  0.0015  0.0004 </r>
        <r>  0.0001  0.0063  0.0000 </r>
       </set>
       <set comment="band 91">
        <r>  0.0185  0.0020  0.0445 </r>
        <r>  0.0025  0.0081  0.0930 </r>
        <r>  0.0018  0.0045  0.0694 </r>
        <r>  0.0018  0.0045  0.0694 </r>
        <r>  0.0054  0.0047  0.0453 </r>
        <r>  0.0054  0.0047  0.0453 </r>
        <r>  0.0021  0.0046  0.0857 </r>
        <r>  0.0093  0.0044  0.0678 </r>
        <r>  0.0002  0.0018  0.0549 </r>
        <r>  0.0029  0.0027  0.0311 </r>
        <r>  0.0056  0.0023  0.0192 </r>
        <r>  0.0056  0.0023  0.0192 </r>
        <r>  0.0027  0.0039  0.0302 </r>
        <r>  0.0143  0.0051  0.0174 </r>
        <r>  0.0034  0.0022  0.0204 </r>
        <r>  0.0034  0.0022  0.0204 </r>
        <r>  0.0005  0.0024  0.0004 </r>
        <r>  0.0000  0.0127  0.0000 </r>
       </set>
       <set comment="band 92">
        <r>  0.0011  0.0101  0.0920 </r>
        <r>  0.0258  0.0042  0.0390 </r>
        <r>  0.0062  0.0067  0.0750 </r>
        <r>  0.0062  0.0067  0.0750 </r>
        <r>  0.0062  0.0046  0.0356 </r>
        <r>  0.0062  0.0046  0.0356 </r>
        <r>  0.0036  0.0030  0.0620 </r>
        <r>  0.0021  0.0038  0.0587 </r>
        <r>  0.0032  0.0033  0.0367 </r>
        <r>  0.0028  0.0005  0.0527 </r>
        <r>  0.0029  0.0019  0.0180 </r>
        <r>  0.0029  0.0019  0.0180 </r>
        <r>  0.0144  0.0055  0.0373 </r>
        <r>  0.0061  0.0057  0.0269 </r>
        <r>  0.0019  0.0028  0.0234 </r>
        <r>  0.0019  0.0028  0.0234 </r>
        <r>  0.0003  0.0013  0.0002 </r>
        <r>  0.0001  0.0069  0.0000 </r>
       </set>
       <set comment="band 93">
        <r>  0.0232  0.0106  0.0374 </r>
        <r>  0.0088  0.0100  0.0325 </r>
        <r>  0.0161  0.0104  0.0353 </r>
        <r>  0.0161  0.0104  0.0353 </r>
        <r>  0.0029  0.0043  0.0313 </r>
        <r>  0.0029  0.0043  0.0313 </r>
        <r>  0.0013  0.0052  0.0172 </r>
        <r>  0.0023  0.0046  0.0383 </r>
        <r>  0.0074  0.0087  0.0179 </r>
        <r>  0.0076  0.0052  0.0413 </r>
        <r>  0.0087  0.0071  0.0308 </r>
        <r>  0.0087  0.0071  0.0308 </r>
        <r>  0.0108  0.0065  0.0376 </r>
        <r>  0.0018  0.0077  0.0372 </r>
        <r>  0.0140  0.0080  0.0381 </r>
        <r>  0.0140  0.0080  0.0381 </r>
        <r>  0.0048  0.0092  0.0006 </r>
        <r>  0.0002  0.0175  0.0001 </r>
       </set>
       <set comment="band 94">
        <r>  0.0011  0.0022  0.0318 </r>
        <r>  0.0001  0.0018  0.0357 </r>
        <r>  0.0154  0.0120  0.0151 </r>
        <r>  0.0154  0.0120  0.0151 </r>
        <r>  0.0052  0.0052  0.0091 </r>
        <r>  0.0052  0.0052  0.0091 </r>
        <r>  0.0324  0.0012  0.0275 </r>
        <r>  0.0187  0.0020  0.0324 </r>
        <r>  0.0144  0.0091  0.0379 </r>
        <r>  0.0068  0.0082  0.0259 </r>
        <r>  0.0027  0.0048  0.0292 </r>
        <r>  0.0027  0.0048  0.0292 </r>
        <r>  0.0007  0.0023  0.0431 </r>
        <r>  0.0043  0.0040  0.0358 </r>
        <r>  0.0049  0.0204  0.0415 </r>
        <r>  0.0049  0.0204  0.0415 </r>
        <r>  0.0091  0.0334  0.0016 </r>
        <r>  0.0005  0.0409  0.0004 </r>
       </set>
       <set comment="band 95">
        <r>  0.0079  0.0114  0.0157 </r>
        <r>  0.0218  0.0177  0.0133 </r>
        <r>  0.0012  0.0020  0.0370 </r>
        <r>  0.0012  0.0020  0.0370 </r>
        <r>  0.0276  0.0026  0.0315 </r>
        <r>  0.0276  0.0026  0.0315 </r>
        <r>  0.0035  0.0058  0.0063 </r>
        <r>  0.0100  0.0048  0.0123 </r>
        <r>  0.0077  0.0041  0.0212 </r>
        <r>  0.0030  0.0055  0.0150 </r>
        <r>  0.0194  0.0077  0.0317 </r>
        <r>  0.0194  0.0077  0.0317 </r>
        <r>  0.0001  0.0146  0.0196 </r>
        <r>  0.0085  0.0299  0.0242 </r>
        <r>  0.0074  0.0009  0.0492 </r>
        <r>  0.0074  0.0009  0.0492 </r>
        <r>  0.0031  0.0245  0.0011 </r>
        <r>  0.0003  0.0349  0.0003 </r>
       </set>
       <set comment="band 96">
        <r>  0.0108  0.0056  0.0145 </r>
        <r>  0.0084  0.0044  0.0157 </r>
        <r>  0.0058  0.0074  0.0125 </r>
        <r>  0.0058  0.0074  0.0125 </r>
        <r>  0.0213  0.0045  0.0130 </r>
        <r>  0.0213  0.0045  0.0130 </r>
        <r>  0.0126  0.0080  0.0189 </r>
        <r>  0.0027  0.0090  0.0096 </r>
        <r>  0.0067  0.0044  0.0213 </r>
        <r>  0.0155  0.0045  0.0144 </r>
        <r>  0.0040  0.0103  0.0177 </r>
        <r>  0.0040  0.0103  0.0177 </r>
        <r>  0.0148  0.0021  0.0198 </r>
        <r>  0.0136  0.0029  0.0431 </r>
        <r>  0.0191  0.0190  0.0422 </r>
        <r>  0.0191  0.0190  0.0423 </r>
        <r>  0.0012  0.0725  0.0015 </r>
        <r>  0.0002  0.0617  0.0013 </r>
       </set>
       <set comment="band 97">
        <r>  0.0018  0.0165  0.0093 </r>
        <r>  0.0001  0.0020  0.0152 </r>
        <r>  0.0089  0.0040  0.0150 </r>
        <r>  0.0089  0.0040  0.0150 </r>
        <r>  0.0059  0.0120  0.0135 </r>
        <r>  0.0059  0.0120  0.0135 </r>
        <r>  0.0119  0.0015  0.0259 </r>
        <r>  0.0254  0.0007  0.0109 </r>
        <r>  0.0038  0.0065  0.0454 </r>
        <r>  0.0192  0.0131  0.0061 </r>
        <r>  0.0252  0.0031  0.0177 </r>
        <r>  0.0252  0.0031  0.0177 </r>
        <r>  0.0524  0.0157  0.0216 </r>
        <r>  0.0039  0.0053  0.0735 </r>
        <r>  0.0234  0.0096  0.0344 </r>
        <r>  0.0234  0.0096  0.0344 </r>
        <r>  0.0112  0.0194  0.0004 </r>
        <r>  0.0001  0.0080  0.0002 </r>
       </set>
       <set comment="band 98">
        <r>  0.0073  0.0058  0.0064 </r>
        <r>  0.0005  0.0069  0.0139 </r>
        <r>  0.0029  0.0074  0.0152 </r>
        <r>  0.0029  0.0074  0.0152 </r>
        <r>  0.0108  0.0037  0.0197 </r>
        <r>  0.0108  0.0037  0.0197 </r>
        <r>  0.0007  0.0111  0.0214 </r>
        <r>  0.0276  0.0088  0.0098 </r>
        <r>  0.0045  0.0033  0.0159 </r>
        <r>  0.0124  0.0064  0.0091 </r>
        <r>  0.0184  0.0066  0.0207 </r>
        <r>  0.0184  0.0066  0.0207 </r>
        <r>  0.0430  0.0077  0.0010 </r>
        <r>  0.0059  0.0242  0.0366 </r>
        <r>  0.0066  0.0096  0.0216 </r>
        <r>  0.0066  0.0096  0.0216 </r>
        <r>  0.0001  0.1009  0.0011 </r>
        <r>  0.0000  0.0526  0.0019 </r>
       </set>
       <set comment="band 99">
        <r>  0.0152  0.0041  0.0357 </r>
        <r>  0.0197  0.0056  0.0298 </r>
        <r>  0.0142  0.0173  0.0200 </r>
        <r>  0.0142  0.0173  0.0200 </r>
        <r>  0.0203  0.0111  0.0343 </r>
        <r>  0.0203  0.0111  0.0343 </r>
        <r>  0.0321  0.0216  0.0170 </r>
        <r>  0.0026  0.0161  0.0394 </r>
        <r>  0.0252  0.0118  0.0174 </r>
        <r>  0.0000  0.0030  0.0177 </r>
        <r>  0.0071  0.0086  0.0160 </r>
        <r>  0.0071  0.0087  0.0160 </r>
        <r>  0.0019  0.0042  0.0025 </r>
        <r>  0.0054  0.0047  0.0060 </r>
        <r>  0.0076  0.0094  0.0247 </r>
        <r>  0.0076  0.0094  0.0247 </r>
        <r>  0.0082  0.0346  0.0005 </r>
        <r>  0.0002  0.0173  0.0006 </r>
       </set>
       <set comment="band 100">
        <r>  0.0029  0.0025  0.0218 </r>
        <r>  0.0036  0.0292  0.0036 </r>
        <r>  0.0005  0.0063  0.0129 </r>
        <r>  0.0005  0.0063  0.0129 </r>
        <r>  0.0041  0.0165  0.0120 </r>
        <r>  0.0041  0.0165  0.0120 </r>
        <r>  0.0108  0.0031  0.0224 </r>
        <r>  0.0056  0.0075  0.0137 </r>
        <r>  0.0136  0.0139  0.0076 </r>
        <r>  0.0495  0.0164  0.0096 </r>
        <r>  0.0009  0.0054  0.0211 </r>
        <r>  0.0009  0.0054  0.0211 </r>
        <r>  0.0102  0.0209  0.0062 </r>
        <r>  0.0443  0.0158  0.0237 </r>
        <r>  0.0055  0.0118  0.0320 </r>
        <r>  0.0055  0.0118  0.0320 </r>
        <r>  0.0151  0.0455  0.0009 </r>
        <r>  0.0009  0.0171  0.0008 </r>
       </set>
       <set comment="band 101">
        <r>  0.0253  0.0103  0.0173 </r>
        <r>  0.0211  0.0081  0.0324 </r>
        <r>  0.0291  0.0154  0.0215 </r>
        <r>  0.0291  0.0154  0.0215 </r>
        <r>  0.0020  0.0068  0.0164 </r>
        <r>  0.0020  0.0068  0.0164 </r>
        <r>  0.0043  0.0010  0.0085 </r>
        <r>  0.0087  0.0178  0.0109 </r>
        <r>  0.0417  0.0050  0.0122 </r>
        <r>  0.0314  0.0143  0.0161 </r>
        <r>  0.0223  0.0084  0.0185 </r>
        <r>  0.0223  0.0084  0.0185 </r>
        <r>  0.0000  0.0152  0.0139 </r>
        <r>  0.0002  0.0134  0.0254 </r>
        <r>  0.0017  0.0177  0.0172 </r>
        <r>  0.0017  0.0177  0.0172 </r>
        <r>  0.0002  0.0177  0.0002 </r>
        <r>  0.0004  0.0086  0.0004 </r>
       </set>
       <set comment="band 102">
        <r>  0.0066  0.0200  0.0101 </r>
        <r>  0.0146  0.0113  0.0018 </r>
        <r>  0.0078  0.0052  0.0147 </r>
        <r>  0.0078  0.0052  0.0147 </r>
        <r>  0.0180  0.0096  0.0128 </r>
        <r>  0.0180  0.0096  0.0129 </r>
        <r>  0.0182  0.0165  0.0049 </r>
        <r>  0.0392  0.0137  0.0127 </r>
        <r>  0.0123  0.0057  0.0238 </r>
        <r>  0.0072  0.0081  0.0169 </r>
        <r>  0.0030  0.0224  0.0089 </r>
        <r>  0.0030  0.0224  0.0089 </r>
        <r>  0.0030  0.0231  0.0143 </r>
        <r>  0.0013  0.0176  0.0180 </r>
        <r>  0.0069  0.0080  0.0125 </r>
        <r>  0.0069  0.0080  0.0125 </r>
        <r>  0.0008  0.0162  0.0001 </r>
        <r>  0.0000  0.0022  0.0004 </r>
       </set>
       <set comment="band 103">
        <r>  0.0380  0.0010  0.0089 </r>
        <r>  0.0346  0.0030  0.0155 </r>
        <r>  0.0401  0.0093  0.0101 </r>
        <r>  0.0401  0.0093  0.0101 </r>
        <r>  0.0348  0.0020  0.0121 </r>
        <r>  0.0348  0.0020  0.0121 </r>
        <r>  0.0392  0.0184  0.0055 </r>
        <r>  0.0190  0.0026  0.0076 </r>
        <r>  0.0000  0.0103  0.0067 </r>
        <r>  0.0036  0.0118  0.0291 </r>
        <r>  0.0034  0.0158  0.0148 </r>
        <r>  0.0034  0.0158  0.0147 </r>
        <r>  0.0026  0.0040  0.0032 </r>
        <r>  0.0035  0.0032  0.0261 </r>
        <r>  0.0014  0.0144  0.0112 </r>
        <r>  0.0014  0.0144  0.0112 </r>
        <r>  0.0004  0.0256  0.0002 </r>
        <r>  0.0003  0.0035  0.0006 </r>
       </set>
       <set comment="band 104">
        <r>  0.0061  0.0293  0.0158 </r>
        <r>  0.0005  0.0167  0.0184 </r>
        <r>  0.0037  0.0176  0.0147 </r>
        <r>  0.0037  0.0176  0.0147 </r>
        <r>  0.0212  0.0195  0.0072 </r>
        <r>  0.0212  0.0195  0.0072 </r>
        <r>  0.0141  0.0076  0.0132 </r>
        <r>  0.0116  0.0106  0.0104 </r>
        <r>  0.0000  0.0255  0.0148 </r>
        <r>  0.0050  0.0242  0.0129 </r>
        <r>  0.0007  0.0177  0.0223 </r>
        <r>  0.0008  0.0177  0.0223 </r>
        <r>  0.0066  0.0273  0.0039 </r>
        <r>  0.0284  0.0078  0.0094 </r>
        <r>  0.0051  0.0084  0.0130 </r>
        <r>  0.0051  0.0084  0.0130 </r>
        <r>  0.0097  0.0163  0.0000 </r>
        <r>  0.0001  0.0030  0.0003 </r>
       </set>
      </set>
     </set>
    </set>
   </array>
  </projected>
 </calculation>
 <structure name="finalpos" >
  <crystal>
   <varray name="basis" >
    <v>       5.64384424       0.00000000       0.00000000 </v>
    <v>       2.82192212       4.88771248       0.00000000 </v>
    <v>       0.00000000       0.00000000      26.91226928 </v>
   </varray>
   <i name="volume">    742.38807929 </i>
   <varray name="rec_basis" >
    <v>       0.17718420      -0.10229734       0.00000000 </v>
    <v>       0.00000000       0.20459469       0.00000000 </v>
    <v>       0.00000000       0.00000000       0.03715777 </v>
   </varray>
  </crystal>
  <varray name="positions" >
   <v>       0.00000000       0.00000000       0.37157773 </v>
   <v>       0.50000000       0.00000000       0.37157773 </v>
   <v>       0.00000000       0.50000000       0.37157773 </v>
   <v>       0.50000000       0.50000000       0.37157773 </v>
   <v>       0.16666667       0.16666667       0.45719258 </v>
   <v>       0.66666667       0.16666667       0.45719258 </v>
   <v>       0.16666667       0.66666667       0.45719258 </v>
   <v>       0.66666667       0.66666667       0.45719258 </v>
   <v>       0.83168056       0.33664283       0.54297819 </v>
   <v>       0.33333577       0.33333615       0.54234581 </v>
   <v>       0.83168414       0.83168389       0.54297717 </v>
   <v>       0.33664250       0.83168054       0.54297816 </v>
   <v>       0.99999974       0.99999987       0.62572273 </v>
   <v>       0.50103857       0.99791607       0.63245082 </v>
   <v>       0.99791601       0.50103868       0.63245086 </v>
   <v>       0.50103226       0.50103257       0.63245766 </v>
   <v>       0.33331451       0.33331443       0.68227577 </v>
   <v>       0.33329167       0.33329138       0.72683238 </v>
  </varray>
  <varray name="selective"  type="logical" >
   <v type="logical" >  F  F  F </v>
   <v type="logical" >  F  F  F </v>
   <v type="logical" >  F  F  F </v>
   <v type="logical" >  F  F  F </v>
   <v type="logical" >  F  F  F </v>
   <v type="logical" >  F  F  F </v>
   <v type="logical" >  F  F  F </v>
   <v type="logical" >  F  F  F </v>
   <v type="logical" >  T  T  T </v>
   <v type="logical" >  T  T  T </v>
   <v type="logical" >  T  T  T </v>
   <v type="logical" >  T  T  T </v>
   <v type="logical" >  T  T  T </v>
   <v type="logical" >  T  T  T </v>
   <v type="logical" >  T  T  T </v>
   <v type="logical" >  T  T  T </v>
   <v type="logical" >  T  T  T </v>
   <v type="logical" >  T  T  T </v>
  </varray>
  <nose>
   <v>      -3.00000000       0.00000000       0.00010000       0.00010000 </v>
  </nose>
 </structure>
</modeling>
