unknown system                          
           1
     5.643844    0.000000    0.000000
     2.821922    4.887712    0.000000
     0.000000    0.000000   26.912269
   Pt   C    O 
  16   1   1
Direct configuration=     1
   0.00000000  0.00000000  0.37157773
   0.50000000  0.00000000  0.37157773
   0.00000000  0.50000000  0.37157773
   0.50000000  0.50000000  0.37157773
   0.16666667  0.16666667  0.45719258
   0.66666667  0.16666667  0.45719258
   0.16666667  0.66666667  0.45719258
   0.66666667  0.66666667  0.45719258
   0.83168056  0.33664283  0.54297819
   0.33333577  0.33333615  0.54234581
   0.83168414  0.83168389  0.54297717
   0.33664250  0.83168054  0.54297816
   0.99999974  0.99999987  0.62572273
   0.50103857  0.99791607  0.63245082
   0.99791601  0.50103868  0.63245086
   0.50103226  0.50103257  0.63245766
   0.33331451  0.33331443  0.68227577
   0.33329167  0.33329138  0.72683238
