  18  18   1   0
  0.3430412E+02  0.5199964E-09  0.5199964E-09  0.2636863E-08  0.5000000E-15
  1.000000000000000E-004
  CAR 
 unknown system                          
      7.79398685    -26.46767500  301     -0.73935806      1.00000000
    -26.468  0.0000E+00  0.0000E+00
    -26.353  0.0000E+00  0.0000E+00
    -26.239  0.0000E+00  0.0000E+00
    -26.125 -0.6078E-28 -0.6942E-29
    -26.011 -0.5268E-24 -0.6017E-25
    -25.897 -0.2365E-20 -0.2702E-21
    -25.782 -0.5495E-17 -0.6279E-18
    -25.668 -0.6601E-14 -0.7545E-15
    -25.554 -0.3954E-11 -0.4524E-12
    -25.440 -0.1251E-08 -0.1433E-09
    -25.326 -0.2023E-06 -0.2325E-07
    -25.211 -0.1659E-04 -0.1918E-05
    -25.097 -0.6803E-03 -0.7961E-04
    -24.983 -0.1357E-01 -0.1629E-02
    -24.869 -0.1230E+00 -0.1567E-01
    -24.755 -0.3955E+00 -0.6084E-01
    -24.640  0.4507E+00 -0.9366E-02
    -24.526  0.4694E+01  0.5268E+00
    -24.412  0.8092E+01  0.1451E+01
    -24.298  0.4835E+01  0.2003E+01
    -24.184  0.5164E+00  0.2062E+01
    -24.069 -0.3991E+00  0.2016E+01
    -23.955 -0.1288E+00  0.2002E+01
    -23.841 -0.1454E-01  0.2000E+01
    -23.727 -0.7437E-03  0.2000E+01
    -23.613 -0.1848E-04  0.2000E+01
    -23.498 -0.2295E-06  0.2000E+01
    -23.384 -0.1445E-08  0.2000E+01
    -23.270 -0.4648E-11  0.2000E+01
    -23.156 -0.7777E-14  0.2000E+01
    -23.042  0.0000E+00  0.2000E+01
    -22.927  0.0000E+00  0.2000E+01
    -22.813  0.0000E+00  0.2000E+01
    -22.699  0.0000E+00  0.2000E+01
    -22.585  0.0000E+00  0.2000E+01
    -22.470  0.0000E+00  0.2000E+01
    -22.356  0.0000E+00  0.2000E+01
    -22.242  0.0000E+00  0.2000E+01
    -22.128  0.0000E+00  0.2000E+01
    -22.014  0.0000E+00  0.2000E+01
    -21.899  0.0000E+00  0.2000E+01
    -21.785  0.0000E+00  0.2000E+01
    -21.671  0.0000E+00  0.2000E+01
    -21.557  0.0000E+00  0.2000E+01
    -21.443  0.0000E+00  0.2000E+01
    -21.328  0.0000E+00  0.2000E+01
    -21.214  0.0000E+00  0.2000E+01
    -21.100  0.0000E+00  0.2000E+01
    -20.986  0.0000E+00  0.2000E+01
    -20.872  0.0000E+00  0.2000E+01
    -20.757  0.0000E+00  0.2000E+01
    -20.643  0.0000E+00  0.2000E+01
    -20.529  0.0000E+00  0.2000E+01
    -20.415  0.0000E+00  0.2000E+01
    -20.301  0.0000E+00  0.2000E+01
    -20.186  0.0000E+00  0.2000E+01
    -20.072  0.0000E+00  0.2000E+01
    -19.958  0.0000E+00  0.2000E+01
    -19.844  0.0000E+00  0.2000E+01
    -19.730  0.0000E+00  0.2000E+01
    -19.615  0.0000E+00  0.2000E+01
    -19.501  0.0000E+00  0.2000E+01
    -19.387  0.0000E+00  0.2000E+01
    -19.273  0.0000E+00  0.2000E+01
    -19.159  0.0000E+00  0.2000E+01
    -19.044  0.0000E+00  0.2000E+01
    -18.930  0.0000E+00  0.2000E+01
    -18.816  0.0000E+00  0.2000E+01
    -18.702  0.0000E+00  0.2000E+01
    -18.587  0.0000E+00  0.2000E+01
    -18.473  0.0000E+00  0.2000E+01
    -18.359  0.0000E+00  0.2000E+01
    -18.245  0.0000E+00  0.2000E+01
    -18.131  0.0000E+00  0.2000E+01
    -18.016  0.0000E+00  0.2000E+01
    -17.902  0.0000E+00  0.2000E+01
    -17.788  0.0000E+00  0.2000E+01
    -17.674  0.0000E+00  0.2000E+01
    -17.560  0.0000E+00  0.2000E+01
    -17.445  0.0000E+00  0.2000E+01
    -17.331  0.0000E+00  0.2000E+01
    -17.217  0.0000E+00  0.2000E+01
    -17.103  0.0000E+00  0.2000E+01
    -16.989  0.0000E+00  0.2000E+01
    -16.874  0.0000E+00  0.2000E+01
    -16.760  0.0000E+00  0.2000E+01
    -16.646  0.0000E+00  0.2000E+01
    -16.532  0.0000E+00  0.2000E+01
    -16.418  0.0000E+00  0.2000E+01
    -16.303  0.0000E+00  0.2000E+01
    -16.189  0.0000E+00  0.2000E+01
    -16.075  0.0000E+00  0.2000E+01
    -15.961  0.0000E+00  0.2000E+01
    -15.847  0.0000E+00  0.2000E+01
    -15.732  0.0000E+00  0.2000E+01
    -15.618  0.0000E+00  0.2000E+01
    -15.504  0.0000E+00  0.2000E+01
    -15.390  0.0000E+00  0.2000E+01
    -15.276  0.0000E+00  0.2000E+01
    -15.161  0.0000E+00  0.2000E+01
    -15.047  0.0000E+00  0.2000E+01
    -14.933  0.0000E+00  0.2000E+01
    -14.819  0.0000E+00  0.2000E+01
    -14.705  0.0000E+00  0.2000E+01
    -14.590  0.0000E+00  0.2000E+01
    -14.476  0.0000E+00  0.2000E+01
    -14.362  0.0000E+00  0.2000E+01
    -14.248  0.0000E+00  0.2000E+01
    -14.133  0.0000E+00  0.2000E+01
    -14.019  0.0000E+00  0.2000E+01
    -13.905  0.0000E+00  0.2000E+01
    -13.791  0.0000E+00  0.2000E+01
    -13.677  0.0000E+00  0.2000E+01
    -13.562  0.0000E+00  0.2000E+01
    -13.448  0.0000E+00  0.2000E+01
    -13.334  0.0000E+00  0.2000E+01
    -13.220  0.0000E+00  0.2000E+01
    -13.106  0.0000E+00  0.2000E+01
    -12.991  0.0000E+00  0.2000E+01
    -12.877  0.0000E+00  0.2000E+01
    -12.763  0.0000E+00  0.2000E+01
    -12.649  0.0000E+00  0.2000E+01
    -12.535 -0.8330E-28  0.2000E+01
    -12.420 -0.5947E-24  0.2000E+01
    -12.306 -0.2220E-20  0.2000E+01
    -12.192 -0.4344E-17  0.2000E+01
    -12.078 -0.4382E-14  0.2000E+01
    -11.964 -0.2322E-11  0.2000E+01
    -11.849 -0.6533E-09  0.2000E+01
    -11.735 -0.9650E-07  0.2000E+01
    -11.621 -0.7468E-05  0.2000E+01
    -11.507 -0.3010E-03  0.2000E+01
    -11.393 -0.6219E-02  0.1999E+01
    -11.278 -0.6303E-01  0.1992E+01
    -11.164 -0.2698E+00  0.1961E+01
    -11.050 -0.8567E-01  0.1951E+01
    -10.936  0.2583E+01  0.2246E+01
    -10.822  0.6951E+01  0.3040E+01
    -10.707  0.6707E+01  0.3806E+01
    -10.593  0.2212E+01  0.4059E+01
    -10.479 -0.2065E+00  0.4035E+01
    -10.365 -0.2549E+00  0.4006E+01
    -10.250 -0.5012E-01  0.4000E+01
    -10.136 -0.4141E-02  0.4000E+01
    -10.022 -0.1635E-03  0.4000E+01
     -9.908 -0.8696E-05  0.4000E+01
     -9.794 -0.1526E-03  0.4000E+01
     -9.679 -0.2011E-02  0.4000E+01
     -9.565 -0.1122E-01  0.3998E+01
     -9.451 -0.1471E-01  0.3997E+01
     -9.337  0.5988E-01  0.4004E+01
     -9.223  0.1920E+00  0.4026E+01
     -9.108  0.4547E+00  0.4077E+01
     -8.994  0.1342E+01  0.4231E+01
     -8.880  0.1908E+01  0.4449E+01
     -8.766  0.9407E+00  0.4556E+01
     -8.652 -0.3820E-01  0.4552E+01
     -8.537  0.3729E+00  0.4594E+01
     -8.423  0.1809E+01  0.4801E+01
     -8.309  0.3247E+01  0.5172E+01
     -8.195  0.4291E+01  0.5662E+01
     -8.081  0.4534E+01  0.6180E+01
     -7.966  0.4594E+01  0.6704E+01
     -7.852  0.4056E+01  0.7168E+01
     -7.738  0.3114E+01  0.7523E+01
     -7.624  0.5397E+01  0.8140E+01
     -7.510  0.1035E+02  0.9321E+01
     -7.395  0.1236E+02  0.1073E+02
     -7.281  0.9868E+01  0.1186E+02
     -7.167  0.6344E+01  0.1258E+02
     -7.053  0.3577E+01  0.1299E+02
     -6.939  0.2306E+01  0.1326E+02
     -6.824  0.3127E+01  0.1361E+02
     -6.710  0.3920E+01  0.1406E+02
     -6.596  0.2868E+01  0.1439E+02
     -6.482  0.8013E+00  0.1448E+02
     -6.368 -0.1514E+00  0.1446E+02
     -6.253  0.9589E+00  0.1457E+02
     -6.139  0.3694E+01  0.1499E+02
     -6.025  0.7174E+01  0.1581E+02
     -5.911  0.9356E+01  0.1688E+02
     -5.796  0.6957E+01  0.1768E+02
     -5.682  0.3266E+01  0.1805E+02
     -5.568  0.3072E+01  0.1840E+02
     -5.454  0.5813E+01  0.1906E+02
     -5.340  0.1127E+02  0.2035E+02
     -5.225  0.1506E+02  0.2207E+02
     -5.111  0.1536E+02  0.2382E+02
     -4.997  0.1763E+02  0.2584E+02
     -4.883  0.2224E+02  0.2838E+02
     -4.769  0.2644E+02  0.3140E+02
     -4.654  0.3159E+02  0.3500E+02
     -4.540  0.3696E+02  0.3923E+02
     -4.426  0.3710E+02  0.4346E+02
     -4.312  0.3542E+02  0.4751E+02
     -4.198  0.3537E+02  0.5155E+02
     -4.083  0.3567E+02  0.5562E+02
     -3.969  0.3930E+02  0.6011E+02
     -3.855  0.4606E+02  0.6537E+02
     -3.741  0.5217E+02  0.7133E+02
     -3.627  0.5917E+02  0.7808E+02
     -3.512  0.6814E+02  0.8587E+02
     -3.398  0.7463E+02  0.9439E+02
     -3.284  0.7332E+02  0.1028E+03
     -3.170  0.6371E+02  0.1100E+03
     -3.056  0.5456E+02  0.1163E+03
     -2.941  0.5291E+02  0.1223E+03
     -2.827  0.5824E+02  0.1290E+03
     -2.713  0.6650E+02  0.1366E+03
     -2.599  0.6965E+02  0.1445E+03
     -2.485  0.7037E+02  0.1525E+03
     -2.370  0.7720E+02  0.1614E+03
     -2.256  0.7484E+02  0.1699E+03
     -2.142  0.4917E+02  0.1755E+03
     -2.028  0.2113E+02  0.1779E+03
     -1.913  0.9694E+01  0.1790E+03
     -1.799  0.8239E+01  0.1800E+03
     -1.685  0.7298E+01  0.1808E+03
     -1.571  0.5130E+01  0.1814E+03
     -1.457  0.2915E+01  0.1817E+03
     -1.342  0.1776E+01  0.1819E+03
     -1.228  0.2428E+01  0.1822E+03
     -1.114  0.4677E+01  0.1828E+03
     -1.000  0.7920E+01  0.1837E+03
     -0.886  0.9953E+01  0.1848E+03
     -0.771  0.8659E+01  0.1858E+03
     -0.657  0.5887E+01  0.1865E+03
     -0.543  0.6117E+01  0.1872E+03
     -0.429  0.8209E+01  0.1881E+03
     -0.315  0.7392E+01  0.1889E+03
     -0.200  0.4845E+01  0.1895E+03
     -0.086  0.3447E+01  0.1899E+03
      0.028  0.3707E+01  0.1903E+03
      0.142  0.3482E+01  0.1907E+03
      0.256  0.2376E+01  0.1910E+03
      0.371  0.3536E+01  0.1914E+03
      0.485  0.6784E+01  0.1922E+03
      0.599  0.8498E+01  0.1931E+03
      0.713  0.7704E+01  0.1940E+03
      0.827  0.6604E+01  0.1948E+03
      0.942  0.6823E+01  0.1955E+03
      1.056  0.6639E+01  0.1963E+03
      1.170  0.5056E+01  0.1969E+03
      1.284  0.4151E+01  0.1974E+03
      1.398  0.3860E+01  0.1978E+03
      1.513  0.4280E+01  0.1983E+03
      1.627  0.5348E+01  0.1989E+03
      1.741  0.5218E+01  0.1995E+03
      1.855  0.4773E+01  0.2000E+03
      1.970  0.6119E+01  0.2007E+03
      2.084  0.7429E+01  0.2016E+03
      2.198  0.6161E+01  0.2023E+03
      2.312  0.4745E+01  0.2028E+03
      2.426  0.4772E+01  0.2034E+03
      2.541  0.4417E+01  0.2039E+03
      2.655  0.3098E+01  0.2042E+03
      2.769  0.2412E+01  0.2045E+03
      2.883  0.2894E+01  0.2048E+03
      2.997  0.4229E+01  0.2053E+03
      3.112  0.5545E+01  0.2059E+03
      3.226  0.5492E+01  0.2066E+03
      3.340  0.3868E+01  0.2070E+03
      3.454  0.2541E+01  0.2073E+03
      3.568  0.3412E+01  0.2077E+03
      3.683  0.5958E+01  0.2084E+03
      3.797  0.8577E+01  0.2094E+03
      3.911  0.9482E+01  0.2104E+03
      4.025  0.8307E+01  0.2114E+03
      4.139  0.7387E+01  0.2122E+03
      4.254  0.6764E+01  0.2130E+03
      4.368  0.5253E+01  0.2136E+03
      4.482  0.5172E+01  0.2142E+03
      4.596  0.6651E+01  0.2150E+03
      4.710  0.8747E+01  0.2160E+03
      4.825  0.1076E+02  0.2172E+03
      4.939  0.9715E+01  0.2183E+03
      5.053  0.7003E+01  0.2191E+03
      5.167  0.5973E+01  0.2198E+03
      5.281  0.5105E+01  0.2204E+03
      5.396  0.4345E+01  0.2209E+03
      5.510  0.6123E+01  0.2216E+03
      5.624  0.9116E+01  0.2226E+03
      5.738  0.8398E+01  0.2236E+03
      5.852  0.3873E+01  0.2240E+03
      5.967  0.4620E+00  0.2240E+03
      6.081 -0.2866E+00  0.2240E+03
      6.195 -0.1245E+00  0.2240E+03
      6.309 -0.2053E-01  0.2240E+03
      6.424 -0.1674E-02  0.2240E+03
      6.538 -0.7077E-04  0.2240E+03
      6.652 -0.1561E-05  0.2240E+03
      6.766 -0.1793E-07  0.2240E+03
      6.880 -0.1070E-09  0.2240E+03
      6.995 -0.3307E-12  0.2240E+03
      7.109 -0.6222E-15  0.2240E+03
      7.223  0.0000E+00  0.2240E+03
      7.337  0.0000E+00  0.2240E+03
      7.451  0.0000E+00  0.2240E+03
      7.566  0.0000E+00  0.2240E+03
      7.680  0.0000E+00  0.2240E+03
      7.794  0.0000E+00  0.2240E+03
      7.79398685    -26.46767500  301     -0.73935806      1.00000000
    -26.468  0.0000E+00  0.0000E+00  0.0000E+00
    -26.353  0.0000E+00  0.0000E+00  0.0000E+00
    -26.239  0.0000E+00  0.0000E+00  0.0000E+00
    -26.125 -0.3453E-39 -0.1166E-38 -0.3548E-37
    -26.011 -0.2992E-35 -0.1011E-34 -0.3075E-33
    -25.897 -0.1343E-31 -0.4537E-31 -0.1381E-29
    -25.782 -0.3119E-28 -0.1054E-27 -0.3208E-26
    -25.668 -0.3745E-25 -0.1266E-24 -0.3853E-23
    -25.554 -0.2243E-22 -0.7586E-22 -0.2308E-20
    -25.440 -0.7094E-20 -0.2400E-19 -0.7303E-18
    -25.326 -0.1147E-17 -0.3881E-17 -0.1181E-15
    -25.211 -0.9401E-16 -0.3182E-15 -0.9683E-14
    -25.097 -0.3854E-14 -0.1305E-13 -0.3971E-12
    -24.983 -0.7682E-13 -0.2602E-12 -0.7918E-11
    -24.869 -0.6960E-12 -0.2358E-11 -0.7177E-10
    -24.755 -0.2237E-11 -0.7584E-11 -0.2308E-09
    -24.640  0.2556E-11  0.8645E-11  0.2631E-09
    -24.526  0.2656E-10  0.9003E-10  0.2740E-08
    -24.412  0.4576E-10  0.1552E-09  0.4722E-08
    -24.298  0.2733E-10  0.9272E-10  0.2822E-08
    -24.184  0.2913E-11  0.9900E-11  0.3013E-09
    -24.069 -0.2257E-11 -0.7653E-11 -0.2329E-09
    -23.955 -0.7279E-12 -0.2470E-11 -0.7517E-10
    -23.841 -0.8212E-13 -0.2788E-12 -0.8484E-11
    -23.727 -0.4199E-14 -0.1426E-13 -0.4339E-12
    -23.613 -0.1043E-15 -0.3543E-15 -0.1078E-13
    -23.498 -0.1295E-17 -0.4400E-17 -0.1339E-15
    -23.384 -0.8149E-20 -0.2770E-19 -0.8429E-18
    -23.270 -0.2621E-22 -0.8913E-22 -0.2712E-20
    -23.156 -0.4398E-25 -0.1491E-24 -0.4539E-23
    -23.042  0.0000E+00  0.0000E+00  0.0000E+00
    -22.927  0.0000E+00  0.0000E+00  0.0000E+00
    -22.813  0.0000E+00  0.0000E+00  0.0000E+00
    -22.699  0.0000E+00  0.0000E+00  0.0000E+00
    -22.585  0.0000E+00  0.0000E+00  0.0000E+00
    -22.470  0.0000E+00  0.0000E+00  0.0000E+00
    -22.356  0.0000E+00  0.0000E+00  0.0000E+00
    -22.242  0.0000E+00  0.0000E+00  0.0000E+00
    -22.128  0.0000E+00  0.0000E+00  0.0000E+00
    -22.014  0.0000E+00  0.0000E+00  0.0000E+00
    -21.899  0.0000E+00  0.0000E+00  0.0000E+00
    -21.785  0.0000E+00  0.0000E+00  0.0000E+00
    -21.671  0.0000E+00  0.0000E+00  0.0000E+00
    -21.557  0.0000E+00  0.0000E+00  0.0000E+00
    -21.443  0.0000E+00  0.0000E+00  0.0000E+00
    -21.328  0.0000E+00  0.0000E+00  0.0000E+00
    -21.214  0.0000E+00  0.0000E+00  0.0000E+00
    -21.100  0.0000E+00  0.0000E+00  0.0000E+00
    -20.986  0.0000E+00  0.0000E+00  0.0000E+00
    -20.872  0.0000E+00  0.0000E+00  0.0000E+00
    -20.757  0.0000E+00  0.0000E+00  0.0000E+00
    -20.643  0.0000E+00  0.0000E+00  0.0000E+00
    -20.529  0.0000E+00  0.0000E+00  0.0000E+00
    -20.415  0.0000E+00  0.0000E+00  0.0000E+00
    -20.301  0.0000E+00  0.0000E+00  0.0000E+00
    -20.186  0.0000E+00  0.0000E+00  0.0000E+00
    -20.072  0.0000E+00  0.0000E+00  0.0000E+00
    -19.958  0.0000E+00  0.0000E+00  0.0000E+00
    -19.844  0.0000E+00  0.0000E+00  0.0000E+00
    -19.730  0.0000E+00  0.0000E+00  0.0000E+00
    -19.615  0.0000E+00  0.0000E+00  0.0000E+00
    -19.501  0.0000E+00  0.0000E+00  0.0000E+00
    -19.387  0.0000E+00  0.0000E+00  0.0000E+00
    -19.273  0.0000E+00  0.0000E+00  0.0000E+00
    -19.159  0.0000E+00  0.0000E+00  0.0000E+00
    -19.044  0.0000E+00  0.0000E+00  0.0000E+00
    -18.930  0.0000E+00  0.0000E+00  0.0000E+00
    -18.816  0.0000E+00  0.0000E+00  0.0000E+00
    -18.702  0.0000E+00  0.0000E+00  0.0000E+00
    -18.587  0.0000E+00  0.0000E+00  0.0000E+00
    -18.473  0.0000E+00  0.0000E+00  0.0000E+00
    -18.359  0.0000E+00  0.0000E+00  0.0000E+00
    -18.245  0.0000E+00  0.0000E+00  0.0000E+00
    -18.131  0.0000E+00  0.0000E+00  0.0000E+00
    -18.016  0.0000E+00  0.0000E+00  0.0000E+00
    -17.902  0.0000E+00  0.0000E+00  0.0000E+00
    -17.788  0.0000E+00  0.0000E+00  0.0000E+00
    -17.674  0.0000E+00  0.0000E+00  0.0000E+00
    -17.560  0.0000E+00  0.0000E+00  0.0000E+00
    -17.445  0.0000E+00  0.0000E+00  0.0000E+00
    -17.331  0.0000E+00  0.0000E+00  0.0000E+00
    -17.217  0.0000E+00  0.0000E+00  0.0000E+00
    -17.103  0.0000E+00  0.0000E+00  0.0000E+00
    -16.989  0.0000E+00  0.0000E+00  0.0000E+00
    -16.874  0.0000E+00  0.0000E+00  0.0000E+00
    -16.760  0.0000E+00  0.0000E+00  0.0000E+00
    -16.646  0.0000E+00  0.0000E+00  0.0000E+00
    -16.532  0.0000E+00  0.0000E+00  0.0000E+00
    -16.418  0.0000E+00  0.0000E+00  0.0000E+00
    -16.303  0.0000E+00  0.0000E+00  0.0000E+00
    -16.189  0.0000E+00  0.0000E+00  0.0000E+00
    -16.075  0.0000E+00  0.0000E+00  0.0000E+00
    -15.961  0.0000E+00  0.0000E+00  0.0000E+00
    -15.847  0.0000E+00  0.0000E+00  0.0000E+00
    -15.732  0.0000E+00  0.0000E+00  0.0000E+00
    -15.618  0.0000E+00  0.0000E+00  0.0000E+00
    -15.504  0.0000E+00  0.0000E+00  0.0000E+00
    -15.390  0.0000E+00  0.0000E+00  0.0000E+00
    -15.276  0.0000E+00  0.0000E+00  0.0000E+00
    -15.161  0.0000E+00  0.0000E+00  0.0000E+00
    -15.047  0.0000E+00  0.0000E+00  0.0000E+00
    -14.933  0.0000E+00  0.0000E+00  0.0000E+00
    -14.819  0.0000E+00  0.0000E+00  0.0000E+00
    -14.705  0.0000E+00  0.0000E+00  0.0000E+00
    -14.590  0.0000E+00  0.0000E+00  0.0000E+00
    -14.476  0.0000E+00  0.0000E+00  0.0000E+00
    -14.362  0.0000E+00  0.0000E+00  0.0000E+00
    -14.248  0.0000E+00  0.0000E+00  0.0000E+00
    -14.133  0.0000E+00  0.0000E+00  0.0000E+00
    -14.019  0.0000E+00  0.0000E+00  0.0000E+00
    -13.905  0.0000E+00  0.0000E+00  0.0000E+00
    -13.791  0.0000E+00  0.0000E+00  0.0000E+00
    -13.677  0.0000E+00  0.0000E+00  0.0000E+00
    -13.562  0.0000E+00  0.0000E+00  0.0000E+00
    -13.448  0.0000E+00  0.0000E+00  0.0000E+00
    -13.334  0.0000E+00  0.0000E+00  0.0000E+00
    -13.220  0.0000E+00  0.0000E+00  0.0000E+00
    -13.106  0.0000E+00  0.0000E+00  0.0000E+00
    -12.991  0.0000E+00  0.0000E+00  0.0000E+00
    -12.877  0.0000E+00  0.0000E+00  0.0000E+00
    -12.763  0.0000E+00  0.0000E+00  0.0000E+00
    -12.649  0.0000E+00  0.0000E+00  0.0000E+00
    -12.535 -0.1897E-32 -0.5045E-33 -0.2433E-34
    -12.420 -0.1321E-28 -0.3526E-29 -0.1748E-30
    -12.306 -0.4784E-25 -0.1284E-25 -0.6575E-27
    -12.192 -0.9020E-22 -0.2436E-22 -0.1296E-23
    -12.078 -0.8658E-19 -0.2358E-19 -0.1318E-20
    -11.964 -0.4361E-16 -0.1198E-16 -0.7018E-18
    -11.849 -0.1147E-13 -0.3186E-14 -0.1979E-15
    -11.735 -0.1560E-11 -0.4389E-12 -0.2913E-13
    -11.621 -0.1090E-09 -0.3113E-10 -0.2226E-11
    -11.507 -0.3859E-08 -0.1123E-08 -0.8734E-10
    -11.393 -0.6738E-07 -0.2006E-07 -0.1722E-08
    -11.278 -0.5399E-06 -0.1658E-06 -0.1614E-07
    -11.164 -0.1495E-05 -0.4888E-06 -0.5953E-07
    -11.050  0.2426E-05  0.6463E-06  0.2082E-07
    -10.936  0.1917E-04  0.6018E-05  0.6355E-06
    -10.822  0.3195E-04  0.1066E-04  0.1405E-05
    -10.707  0.1972E-04  0.7066E-05  0.1152E-05
    -10.593  0.2814E-05  0.1231E-05  0.3014E-06
    -10.479 -0.1450E-05 -0.4727E-06 -0.5505E-07
    -10.365 -0.5701E-06 -0.2147E-06 -0.3984E-07
    -10.250 -0.7659E-07 -0.3121E-07 -0.6907E-08
    -10.136 -0.4823E-08 -0.2093E-08 -0.5247E-09
    -10.022 -0.2649E-08 -0.4082E-09 -0.2048E-10
     -9.908 -0.1407E-06 -0.1906E-07 -0.6275E-10
     -9.794 -0.3917E-05 -0.5305E-06 -0.1749E-08
     -9.679 -0.5162E-04 -0.6996E-05 -0.2402E-07
     -9.565 -0.2872E-03 -0.3911E-04 -0.1719E-06
     -9.451 -0.3631E-03 -0.5328E-04 -0.9868E-06
     -9.337  0.1657E-02  0.1903E-03 -0.6103E-05
     -9.223  0.5259E-02  0.6183E-03 -0.1651E-04
     -9.108  0.1108E-01  0.1669E-02  0.3869E-04
     -8.994  0.3021E-01  0.5304E-02  0.2565E-03
     -8.880  0.4260E-01  0.7610E-02  0.3860E-03
     -8.766  0.2156E-01  0.3790E-02  0.1694E-03
     -8.652 -0.1631E-03 -0.5293E-04 -0.3511E-04
     -8.537  0.4097E-02  0.1463E-02  0.2482E-03
     -8.423  0.2583E-01  0.6360E-02  0.9745E-03
     -8.309  0.4931E-01  0.9850E-02  0.1541E-02
     -8.195  0.6461E-01  0.1081E-01  0.1668E-02
     -8.081  0.5795E-01  0.9720E-02  0.1439E-02
     -7.966  0.5341E-01  0.1197E-01  0.1890E-02
     -7.852  0.6101E-01  0.1628E-01  0.2814E-02
     -7.738  0.4227E-01  0.1222E-01  0.2241E-02
     -7.624  0.1728E-01  0.4829E-02  0.1064E-02
     -7.510  0.2211E-01  0.2097E-02  0.1102E-02
     -7.395  0.5988E-01  0.3941E-02  0.3006E-02
     -7.281  0.1221E+00  0.1632E-01  0.9045E-02
     -7.167  0.1408E+00  0.3407E-01  0.1602E-01
     -7.053  0.9480E-01  0.3315E-01  0.1413E-01
     -6.939  0.8629E-01  0.2363E-01  0.8507E-02
     -6.824  0.1231E+00  0.2983E-01  0.1133E-01
     -6.710  0.1387E+00  0.3733E-01  0.1695E-01
     -6.596  0.1117E+00  0.2673E-01  0.1355E-01
     -6.482  0.4182E-01  0.6567E-02  0.3403E-02
     -6.368  0.3717E-02 -0.1389E-02 -0.1746E-02
     -6.253  0.5481E-01  0.1304E-01  0.6703E-02
     -6.139  0.1400E+00  0.4268E-01  0.3199E-01
     -6.025  0.2000E+00  0.7074E-01  0.7547E-01
     -5.911  0.2301E+00  0.8303E-01  0.1131E+00
     -5.796  0.1651E+00  0.6390E-01  0.8966E-01
     -5.682  0.5909E-01  0.3242E-01  0.4535E-01
     -5.568  0.4194E-01  0.2528E-01  0.5419E-01
     -5.454  0.1243E+00  0.4739E-01  0.1153E+00
     -5.340  0.2420E+00  0.8493E-01  0.2233E+00
     -5.225  0.2376E+00  0.9155E-01  0.2798E+00
     -5.111  0.1400E+00  0.6931E-01  0.2673E+00
     -4.997  0.1546E+00  0.7977E-01  0.3380E+00
     -4.883  0.2222E+00  0.1096E+00  0.5106E+00
     -4.769  0.2192E+00  0.1101E+00  0.7141E+00
     -4.654  0.1863E+00  0.9455E-01  0.9588E+00
     -4.540  0.1535E+00  0.9214E-01  0.1181E+01
     -4.426  0.1027E+00  0.8897E-01  0.1308E+01
     -4.312  0.5868E-01  0.8251E-01  0.1505E+01
     -4.198  0.3753E-01  0.8320E-01  0.1700E+01
     -4.083  0.2956E-01  0.8171E-01  0.1742E+01
     -3.969  0.2625E-01  0.7325E-01  0.1864E+01
     -3.855  0.2837E-01  0.6780E-01  0.2056E+01
     -3.741  0.4342E-01  0.7531E-01  0.2271E+01
     -3.627  0.6717E-01  0.9613E-01  0.2900E+01
     -3.512  0.7101E-01  0.1066E+00  0.3776E+01
     -3.398  0.5140E-01  0.1109E+00  0.4702E+01
     -3.284  0.5333E-01  0.1540E+00  0.5475E+01
     -3.170  0.8216E-01  0.2112E+00  0.5131E+01
     -3.056  0.8723E-01  0.2106E+00  0.4157E+01
     -2.941  0.5675E-01  0.1420E+00  0.3546E+01
     -2.827  0.3605E-01  0.7812E-01  0.3607E+01
     -2.713  0.4272E-01  0.8103E-01  0.4661E+01
     -2.599  0.5407E-01  0.1012E+00  0.5538E+01
     -2.485  0.4929E-01  0.8261E-01  0.5306E+01
     -2.370  0.3588E-01  0.6241E-01  0.5055E+01
     -2.256  0.2657E-01  0.6280E-01  0.4664E+01
     -2.142  0.2201E-01  0.5579E-01  0.3109E+01
     -2.028  0.3004E-01  0.4782E-01  0.1358E+01
     -1.913  0.6205E-01  0.5936E-01  0.5982E+00
     -1.799  0.1018E+00  0.7644E-01  0.4652E+00
     -1.685  0.1088E+00  0.8161E-01  0.3453E+00
     -1.571  0.8293E-01  0.7332E-01  0.1906E+00
     -1.457  0.4572E-01  0.5059E-01  0.9576E-01
     -1.342  0.1773E-01  0.2640E-01  0.4348E-01
     -1.228  0.2333E-01  0.2505E-01  0.4485E-01
     -1.114  0.4853E-01  0.5385E-01  0.9544E-01
     -1.000  0.5602E-01  0.9954E-01  0.1520E+00
     -0.886  0.5688E-01  0.1440E+00  0.1951E+00
     -0.771  0.7104E-01  0.1546E+00  0.1905E+00
     -0.657  0.7167E-01  0.1234E+00  0.1352E+00
     -0.543  0.6942E-01  0.1431E+00  0.1476E+00
     -0.429  0.7977E-01  0.2150E+00  0.2054E+00
     -0.315  0.6366E-01  0.2017E+00  0.1732E+00
     -0.200  0.3548E-01  0.1166E+00  0.1014E+00
     -0.086  0.4260E-01  0.7933E-01  0.6767E-01
      0.028  0.7161E-01  0.1137E+00  0.7374E-01
      0.142  0.6384E-01  0.1219E+00  0.7250E-01
      0.256  0.2278E-01  0.9669E-01  0.3868E-01
      0.371  0.1437E-01  0.1491E+00  0.2884E-01
      0.485  0.4680E-01  0.2429E+00  0.6654E-01
      0.599  0.7371E-01  0.2515E+00  0.1024E+00
      0.713  0.7426E-01  0.1943E+00  0.1101E+00
      0.827  0.5240E-01  0.1550E+00  0.1038E+00
      0.942  0.3190E-01  0.1371E+00  0.1047E+00
      1.056  0.3263E-01  0.1256E+00  0.1002E+00
      1.170  0.3517E-01  0.1127E+00  0.7852E-01
      1.284  0.3189E-01  0.1145E+00  0.6611E-01
      1.398  0.2261E-01  0.1248E+00  0.6128E-01
      1.513  0.9761E-02  0.1547E+00  0.6640E-01
      1.627  0.1009E-01  0.2063E+00  0.7496E-01
      1.741  0.2169E-01  0.2128E+00  0.6097E-01
      1.855  0.3124E-01  0.1770E+00  0.5496E-01
      1.970  0.4084E-01  0.1569E+00  0.8609E-01
      2.084  0.4832E-01  0.1562E+00  0.1119E+00
      2.198  0.4084E-01  0.1453E+00  0.9411E-01
      2.312  0.2732E-01  0.1328E+00  0.6576E-01
      2.426  0.2267E-01  0.1058E+00  0.5208E-01
      2.541  0.2080E-01  0.6349E-01  0.3869E-01
      2.655  0.1294E-01  0.3574E-01  0.2448E-01
      2.769  0.4921E-02  0.3153E-01  0.1831E-01
      2.883  0.3615E-02  0.5106E-01  0.1796E-01
      2.997  0.8888E-02  0.9943E-01  0.3221E-01
      3.112  0.1663E-01  0.1361E+00  0.4951E-01
      3.226  0.2417E-01  0.1179E+00  0.4445E-01
      3.340  0.2678E-01  0.6539E-01  0.2833E-01
      3.454  0.2258E-01  0.2284E-01  0.2216E-01
      3.568  0.4017E-01  0.2757E-01  0.3671E-01
      3.683  0.7618E-01  0.9530E-01  0.7502E-01
      3.797  0.8502E-01  0.1598E+00  0.1152E+00
      3.911  0.7986E-01  0.1567E+00  0.1169E+00
      4.025  0.7486E-01  0.1273E+00  0.8592E-01
      4.139  0.6796E-01  0.1168E+00  0.7173E-01
      4.254  0.7966E-01  0.1024E+00  0.6916E-01
      4.368  0.6431E-01  0.6118E-01  0.5029E-01
      4.482  0.4755E-01  0.5504E-01  0.4193E-01
      4.596  0.1453E+00  0.1220E+00  0.5573E-01
      4.710  0.2427E+00  0.1762E+00  0.7430E-01
      4.825  0.1807E+00  0.1478E+00  0.1030E+00
      4.939  0.8741E-01  0.9823E-01  0.1194E+00
      5.053  0.7367E-01  0.8953E-01  0.9909E-01
      5.167  0.8854E-01  0.1008E+00  0.7905E-01
      5.281  0.6810E-01  0.7854E-01  0.5632E-01
      5.396  0.3682E-01  0.5078E-01  0.3344E-01
      5.510  0.4254E-01  0.9787E-01  0.5095E-01
      5.624  0.6575E-01  0.1563E+00  0.7908E-01
      5.738  0.5826E-01  0.1177E+00  0.6245E-01
      5.852  0.2579E-01  0.3984E-01  0.2573E-01
      5.967  0.3012E-02  0.1414E-02  0.4506E-02
      6.081 -0.1976E-02 -0.3701E-02 -0.1311E-02
      6.195 -0.8548E-03 -0.1318E-02 -0.9653E-03
      6.309 -0.1376E-03 -0.2030E-03 -0.2109E-03
      6.424 -0.1078E-04 -0.1583E-04 -0.2074E-04
      6.538 -0.4351E-06 -0.6454E-06 -0.9887E-06
      6.652 -0.9204E-08 -0.1383E-07 -0.2352E-07
      6.766 -0.1022E-09 -0.1554E-09 -0.2832E-09
      6.880 -0.5945E-12 -0.9119E-12 -0.1739E-11
      6.995 -0.1806E-14 -0.2787E-14 -0.5475E-14
      7.109 -0.3272E-17 -0.5122E-17 -0.1063E-16
      7.223  0.0000E+00  0.0000E+00  0.0000E+00
      7.337  0.0000E+00  0.0000E+00  0.0000E+00
      7.451  0.0000E+00  0.0000E+00  0.0000E+00
      7.566  0.0000E+00  0.0000E+00  0.0000E+00
      7.680  0.0000E+00  0.0000E+00  0.0000E+00
      7.794  0.0000E+00  0.0000E+00  0.0000E+00
      7.79398685    -26.46767500  301     -0.73935806      1.00000000
    -26.468  0.0000E+00  0.0000E+00  0.0000E+00
    -26.353  0.0000E+00  0.0000E+00  0.0000E+00
    -26.239  0.0000E+00  0.0000E+00  0.0000E+00
    -26.125 -0.5020E-39 -0.7283E-39 -0.5084E-37
    -26.011 -0.4353E-35 -0.6311E-35 -0.4404E-33
    -25.897 -0.1956E-31 -0.2833E-31 -0.1977E-29
    -25.782 -0.4547E-28 -0.6584E-28 -0.4592E-26
    -25.668 -0.5464E-25 -0.7907E-25 -0.5514E-23
    -25.554 -0.3276E-22 -0.4737E-22 -0.3302E-20
    -25.440 -0.1037E-19 -0.1499E-19 -0.1044E-17
    -25.326 -0.1678E-17 -0.2423E-17 -0.1688E-15
    -25.211 -0.1377E-15 -0.1987E-15 -0.1384E-13
    -25.097 -0.5649E-14 -0.8149E-14 -0.5674E-12
    -24.983 -0.1127E-12 -0.1625E-12 -0.1131E-10
    -24.869 -0.1023E-11 -0.1473E-11 -0.1025E-09
    -24.755 -0.3293E-11 -0.4736E-11 -0.3293E-09
    -24.640  0.3735E-11  0.5399E-11  0.3762E-09
    -24.526  0.3906E-10  0.5622E-10  0.3911E-08
    -24.412  0.6740E-10  0.9690E-10  0.6737E-08
    -24.298  0.4031E-10  0.5790E-10  0.4024E-08
    -24.184  0.4320E-11  0.6182E-11  0.4289E-09
    -24.069 -0.3325E-11 -0.4779E-11 -0.3323E-09
    -23.955 -0.1075E-11 -0.1542E-11 -0.1072E-09
    -23.841 -0.1214E-12 -0.1741E-12 -0.1209E-10
    -23.727 -0.6213E-14 -0.8904E-14 -0.6182E-12
    -23.613 -0.1545E-15 -0.2212E-15 -0.1535E-13
    -23.498 -0.1920E-17 -0.2747E-17 -0.1906E-15
    -23.384 -0.1209E-19 -0.1730E-19 -0.1200E-17
    -23.270 -0.3894E-22 -0.5565E-22 -0.3859E-20
    -23.156 -0.6478E-25 -0.9313E-25 -0.6475E-23
    -23.042  0.0000E+00  0.0000E+00  0.0000E+00
    -22.927  0.0000E+00  0.0000E+00  0.0000E+00
    -22.813  0.0000E+00  0.0000E+00  0.0000E+00
    -22.699  0.0000E+00  0.0000E+00  0.0000E+00
    -22.585  0.0000E+00  0.0000E+00  0.0000E+00
    -22.470  0.0000E+00  0.0000E+00  0.0000E+00
    -22.356  0.0000E+00  0.0000E+00  0.0000E+00
    -22.242  0.0000E+00  0.0000E+00  0.0000E+00
    -22.128  0.0000E+00  0.0000E+00  0.0000E+00
    -22.014  0.0000E+00  0.0000E+00  0.0000E+00
    -21.899  0.0000E+00  0.0000E+00  0.0000E+00
    -21.785  0.0000E+00  0.0000E+00  0.0000E+00
    -21.671  0.0000E+00  0.0000E+00  0.0000E+00
    -21.557  0.0000E+00  0.0000E+00  0.0000E+00
    -21.443  0.0000E+00  0.0000E+00  0.0000E+00
    -21.328  0.0000E+00  0.0000E+00  0.0000E+00
    -21.214  0.0000E+00  0.0000E+00  0.0000E+00
    -21.100  0.0000E+00  0.0000E+00  0.0000E+00
    -20.986  0.0000E+00  0.0000E+00  0.0000E+00
    -20.872  0.0000E+00  0.0000E+00  0.0000E+00
    -20.757  0.0000E+00  0.0000E+00  0.0000E+00
    -20.643  0.0000E+00  0.0000E+00  0.0000E+00
    -20.529  0.0000E+00  0.0000E+00  0.0000E+00
    -20.415  0.0000E+00  0.0000E+00  0.0000E+00
    -20.301  0.0000E+00  0.0000E+00  0.0000E+00
    -20.186  0.0000E+00  0.0000E+00  0.0000E+00
    -20.072  0.0000E+00  0.0000E+00  0.0000E+00
    -19.958  0.0000E+00  0.0000E+00  0.0000E+00
    -19.844  0.0000E+00  0.0000E+00  0.0000E+00
    -19.730  0.0000E+00  0.0000E+00  0.0000E+00
    -19.615  0.0000E+00  0.0000E+00  0.0000E+00
    -19.501  0.0000E+00  0.0000E+00  0.0000E+00
    -19.387  0.0000E+00  0.0000E+00  0.0000E+00
    -19.273  0.0000E+00  0.0000E+00  0.0000E+00
    -19.159  0.0000E+00  0.0000E+00  0.0000E+00
    -19.044  0.0000E+00  0.0000E+00  0.0000E+00
    -18.930  0.0000E+00  0.0000E+00  0.0000E+00
    -18.816  0.0000E+00  0.0000E+00  0.0000E+00
    -18.702  0.0000E+00  0.0000E+00  0.0000E+00
    -18.587  0.0000E+00  0.0000E+00  0.0000E+00
    -18.473  0.0000E+00  0.0000E+00  0.0000E+00
    -18.359  0.0000E+00  0.0000E+00  0.0000E+00
    -18.245  0.0000E+00  0.0000E+00  0.0000E+00
    -18.131  0.0000E+00  0.0000E+00  0.0000E+00
    -18.016  0.0000E+00  0.0000E+00  0.0000E+00
    -17.902  0.0000E+00  0.0000E+00  0.0000E+00
    -17.788  0.0000E+00  0.0000E+00  0.0000E+00
    -17.674  0.0000E+00  0.0000E+00  0.0000E+00
    -17.560  0.0000E+00  0.0000E+00  0.0000E+00
    -17.445  0.0000E+00  0.0000E+00  0.0000E+00
    -17.331  0.0000E+00  0.0000E+00  0.0000E+00
    -17.217  0.0000E+00  0.0000E+00  0.0000E+00
    -17.103  0.0000E+00  0.0000E+00  0.0000E+00
    -16.989  0.0000E+00  0.0000E+00  0.0000E+00
    -16.874  0.0000E+00  0.0000E+00  0.0000E+00
    -16.760  0.0000E+00  0.0000E+00  0.0000E+00
    -16.646  0.0000E+00  0.0000E+00  0.0000E+00
    -16.532  0.0000E+00  0.0000E+00  0.0000E+00
    -16.418  0.0000E+00  0.0000E+00  0.0000E+00
    -16.303  0.0000E+00  0.0000E+00  0.0000E+00