   18   18    1    1
  0.3430412E+02  0.5199964E-09  0.5199964E-09  0.2636863E-08  0.5000000E-15
  1.000000000000000E-004
  CAR 
 unknown system                          
    186     13    112
 
  0.0000000E+00  0.0000000E+00  0.0000000E+00  0.4000000E-01
    1      -24.466929   1.000000
    2      -10.918534   1.000000
    3       -9.226270   1.000000
    4       -8.345564   1.000000
    5       -7.500410   1.000000
    6       -7.480739   1.000000
    7       -7.350755   1.000000
    8       -6.140048   1.000000
    9       -5.527458   1.000000
   10       -5.304416   1.000000
   11       -5.281780   1.000000
   12       -5.269328   1.000000
   13       -5.159310   1.000000
   14       -5.152353   1.000000
   15       -5.140130   1.000000
   16       -4.990074   1.000000
   17       -4.845139   1.000000
   18       -4.814065   1.000000
   19       -4.770688   1.000000
   20       -4.764511   1.000000
   21       -4.764140   1.000000
   22       -4.733721   1.000000
   23       -4.724989   1.000000
   24       -4.681913   1.000000
   25       -4.425238   1.000000
   26       -4.401531   1.000000
   27       -4.334560   1.000000
   28       -3.961946   1.000000
   29       -3.917648   1.000000
   30       -3.865181   1.000000
   31       -3.750408   1.000000
   32       -3.728380   1.000000
   33       -3.651143   1.000000
   34       -3.649054   1.000000
   35       -3.641971   1.000000
   36       -3.600732   1.000000
   37       -3.591939   1.000000
   38       -3.552776   1.000000
   39       -3.513294   1.000000
   40       -3.491298   1.000000
   41       -3.488803   1.000000
   42       -3.476198   1.000000
   43       -3.473488   1.000000
   44       -3.461052   1.000000
   45       -3.453914   1.000000
   46       -3.364993   1.000000
   47       -3.311371   1.000000
   48       -3.311165   1.000000
   49       -3.304692   1.000000
   50       -3.268696   1.000000
   51       -3.263526   1.000000
   52       -3.205781   1.000000
   53       -3.082143   1.000000
   54       -3.079934   1.000000
   55       -3.065045   1.000000
   56       -2.963167   1.000000
   57       -2.902948   1.000000
   58       -2.821460   1.000000
   59       -2.780591   1.000000
   60       -2.762204   1.000000
   61       -2.734902   1.000000
   62       -2.662440   1.000000
   63       -2.637030   1.000000
   64       -2.618592   1.000000
   65       -2.592639   1.000000
   66       -2.519800   1.000000
   67       -2.500562   1.000000
   68       -2.491521   1.000000
   69       -2.480039   1.000000
   70       -2.379630   1.000000
   71       -2.359013   1.000000
   72       -2.355440   1.000000
   73       -2.342337   1.000000
   74       -2.340680   1.000000
   75       -2.329303   1.000000
   76       -2.320531   1.000000
   77       -2.308946   1.000000
   78       -2.270584   1.000000
   79       -2.260353   1.000000
   80       -2.251391   1.000000
   81       -2.247736   1.000000
   82       -2.220580   1.000000
   83       -2.175037   1.000000
   84       -2.158273   1.000000
   85       -2.154230   1.000000
   86       -2.100003   1.000000
   87       -2.093997   1.000000
   88       -2.089974   1.000000
   89       -1.471244   1.000001
   90       -1.097520   1.014787
   91       -0.925015   1.015995
   92       -0.896653   0.986506
   93       -0.317439  -0.005522
   94       -0.266843  -0.002093
   95        0.011611  -0.000001
   96        0.269203  -0.000000
   97        0.340799  -0.000000
   98        0.467610  -0.000000
   99        0.553809  -0.000000
  100        0.736197  -0.000000
  101        0.760112  -0.000000
  102        0.816204  -0.000000
  103        1.962928  -0.000000
  104        2.269053  -0.000000
  105        3.259478  -0.000000
  106        3.310471  -0.000000
  107        3.428528  -0.000000
  108        3.555656  -0.000000
  109        3.592223  -0.000000
  110        4.260707  -0.000000
  111        4.515023  -0.000000
  112        4.533429  -0.000000
 
  0.2000000E+00 -0.1387779E-16  0.0000000E+00  0.8000000E-01
    1      -24.467619   1.000000
    2      -10.879021   1.000000
    3       -8.947085   1.000000
    4       -8.200793   1.000000
    5       -7.508599   1.000000
    6       -7.417314   1.000000
    7       -7.283033   1.000000
    8       -5.944400   1.000000
    9       -5.595703   1.000000
   10       -5.355178   1.000000
   11       -5.247027   1.000000
   12       -5.213766   1.000000
   13       -5.212398   1.000000
   14       -5.080846   1.000000
   15       -5.062728   1.000000
   16       -4.898008   1.000000
   17       -4.849161   1.000000
   18       -4.770882   1.000000
   19       -4.692818   1.000000
   20       -4.668221   1.000000
   21       -4.668020   1.000000
   22       -4.621261   1.000000
   23       -4.587593   1.000000
   24       -4.569416   1.000000
   25       -4.348506   1.000000
   26       -4.335181   1.000000
   27       -4.288267   1.000000
   28       -3.955324   1.000000
   29       -3.928416   1.000000
   30       -3.896547   1.000000
   31       -3.837378   1.000000
   32       -3.742318   1.000000
   33       -3.725531   1.000000
   34       -3.669504   1.000000
   35       -3.628671   1.000000
   36       -3.617476   1.000000
   37       -3.601434   1.000000
   38       -3.572493   1.000000
   39       -3.541003   1.000000
   40       -3.525471   1.000000
   41       -3.523674   1.000000
   42       -3.511669   1.000000
   43       -3.468119   1.000000
   44       -3.438423   1.000000
   45       -3.421791   1.000000
   46       -3.414028   1.000000
   47       -3.399080   1.000000
   48       -3.397763   1.000000
   49       -3.371154   1.000000
   50       -3.322927   1.000000
   51       -3.260166   1.000000
   52       -3.248031   1.000000
   53       -3.204733   1.000000
   54       -3.198662   1.000000
   55       -3.100690   1.000000
   56       -2.987111   1.000000
   57       -2.930955   1.000000
   58       -2.919371   1.000000
   59       -2.891453   1.000000
   60       -2.832924   1.000000
   61       -2.825486   1.000000
   62       -2.787443   1.000000
   63       -2.778010   1.000000
   64       -2.714131   1.000000
   65       -2.685058   1.000000
   66       -2.679203   1.000000
   67       -2.648138   1.000000
   68       -2.620476   1.000000
   69       -2.570767   1.000000
   70       -2.522046   1.000000
   71       -2.497660   1.000000
   72       -2.450674   1.000000
   73       -2.442439   1.000000
   74       -2.429503   1.000000
   75       -2.422471   1.000000
   76       -2.383312   1.000000
   77       -2.378778   1.000000
   78       -2.374076   1.000000
   79       -2.345861   1.000000
   80       -2.329543   1.000000
   81       -2.310072   1.000000
   82       -2.294682   1.000000
   83       -2.266681   1.000000
   84       -2.242670   1.000000
   85       -2.234731   1.000000
   86       -2.215535   1.000000
   87       -2.195133   1.000000
   88       -2.165195   1.000000
   89       -2.088125   1.000000
   90       -1.695126   1.000000
   91       -1.075289   1.019442
   92       -0.949464   1.029608
   93       -0.776598   0.654586
   94       -0.426316  -0.024676
   95       -0.417933  -0.022737
   96       -0.246489  -0.001356
   97        0.346735  -0.000000
   98        0.474862  -0.000000
   99        1.267919  -0.000000
  100        1.349353  -0.000000
  101        1.689620  -0.000000
  102        1.999628  -0.000000
  103        2.264654  -0.000000
  104        3.032242  -0.000000
  105        3.546275  -0.000000
  106        3.720212  -0.000000
  107        3.752312  -0.000000
  108        3.884836  -0.000000
  109        4.172467  -0.000000
  110        4.633371  -0.000000
  111        4.792059   0.000000
  112        4.899835   0.000000
 
  0.4000000E+00 -0.2775558E-16  0.0000000E+00  0.8000000E-01
    1      -24.467652   1.000000
    2      -10.818196   1.000000
    3       -8.243524   1.000000
    4       -7.851906   1.000000
    5       -7.520896   1.000000
    6       -7.473915   1.000000
    7       -6.795595   1.000000
    8       -6.634501   1.000000
    9       -5.802439   1.000000
   10       -5.330790   1.000000
   11       -5.110292   1.000000
   12       -5.072962   1.000000
   13       -4.913667   1.000000
   14       -4.904445   1.000000
   15       -4.847401   1.000000
   16       -4.826357   1.000000
   17       -4.672725   1.000000
   18       -4.625718   1.000000
   19       -4.585939   1.000000
   20       -4.475526   1.000000
   21       -4.449754   1.000000
   22       -4.420083   1.000000
   23       -4.374379   1.000000
   24       -4.291323   1.000000
   25       -4.175685   1.000000
   26       -4.168001   1.000000
   27       -4.156725   1.000000
   28       -4.084995   1.000000
   29       -4.038135   1.000000
   30       -4.023310   1.000000
   31       -3.936444   1.000000
   32       -3.911743   1.000000
   33       -3.859205   1.000000
   34       -3.833100   1.000000
   35       -3.805823   1.000000
   36       -3.777014   1.000000
   37       -3.748057   1.000000
   38       -3.736726   1.000000
   39       -3.702781   1.000000
   40       -3.658677   1.000000
   41       -3.614713   1.000000
   42       -3.537997   1.000000
   43       -3.537369   1.000000
   44       -3.509473   1.000000
   45       -3.470579   1.000000
   46       -3.452647   1.000000
   47       -3.422161   1.000000
   48       -3.357329   1.000000
   49       -3.344891   1.000000
   50       -3.342124   1.000000
   51       -3.330389   1.000000
   52       -3.286414   1.000000
   53       -3.277327   1.000000
   54       -3.251767   1.000000
   55       -3.239892   1.000000
   56       -3.205441   1.000000
   57       -3.201517   1.000000
   58       -3.149995   1.000000
   59       -3.135966   1.000000
   60       -3.101495   1.000000
   61       -3.052443   1.000000
   62       -3.007814   1.000000
   63       -2.971768   1.000000
   64       -2.916225   1.000000
   65       -2.871295   1.000000
   66       -2.868539   1.000000
   67       -2.843272   1.000000
   68       -2.817151   1.000000
   69       -2.751328   1.000000
   70       -2.729335   1.000000
   71       -2.727857   1.000000
   72       -2.690538   1.000000
   73       -2.678582   1.000000
   74       -2.672579   1.000000
   75       -2.626731   1.000000
   76       -2.595798   1.000000
   77       -2.593138   1.000000
   78       -2.540616   1.000000
   79       -2.518103   1.000000
   80       -2.499492   1.000000
   81       -2.423568   1.000000
   82       -2.383116   1.000000
   83       -2.312836   1.000000
   84       -2.303061   1.000000
   85       -2.286430   1.000000
   86       -2.259344   1.000000
   87       -2.237943   1.000000
   88       -2.219011   1.000000
   89       -2.168312   1.000000
   90       -1.807352   1.000000
   91       -1.315129   1.000181
   92       -0.981493   1.035427
   93       -0.831073   0.846504
   94       -0.568465  -0.002699
   95       -0.415506  -0.022177
   96        0.074242  -0.000000
   97        0.394380  -0.000000
   98        0.691835  -0.000000
   99        1.055902  -0.000000
  100        1.793532  -0.000000
  101        2.077447  -0.000000
  102        2.589562  -0.000000
  103        3.145348  -0.000000
  104        3.714652  -0.000000
  105        4.239418  -0.000000
  106        4.525681  -0.000000
  107        4.760058   0.000000
  108        4.775438   0.000000
  109        5.022455   0.000000
  110        5.537220   0.000000
  111        5.676657   0.000000
  112        5.793987   0.000000
 
  0.0000000E+00  0.2000000E+00  0.0000000E+00  0.8000000E-01
    1      -24.467609   1.000000
    2      -10.873300   1.000000
    3       -8.947896   1.000000
    4       -8.194269   1.000000
    5       -7.544243   1.000000
    6       -7.373189   1.000000
    7       -7.290998   1.000000
    8       -5.932950   1.000000
    9       -5.619651   1.000000
   10       -5.343332   1.000000
   11       -5.286594   1.000000
   12       -5.224929   1.000000
   13       -5.199312   1.000000
   14       -5.079747   1.000000
   15       -5.059629   1.000000
   16       -4.961198   1.000000
   17       -4.820667   1.000000
   18       -4.750669   1.000000
   19       -4.689505   1.000000
   20       -4.674485   1.000000
   21       -4.665544   1.000000
   22       -4.622121   1.000000
   23       -4.602975   1.000000
   24       -4.565463   1.000000
   25       -4.357167   1.000000
   26       -4.341048   1.000000
   27       -4.290744   1.000000
   28       -3.980036   1.000000
   29       -3.940680   1.000000
   30       -3.888115   1.000000
   31       -3.867036   1.000000
   32       -3.752004   1.000000
   33       -3.706210   1.000000
   34       -3.658875   1.000000
   35       -3.648862   1.000000
   36       -3.612590   1.000000
   37       -3.586730   1.000000
   38       -3.580265   1.000000
   39       -3.565206   1.000000
   40       -3.545713   1.000000
   41       -3.511382   1.000000
   42       -3.475156   1.000000
   43       -3.456045   1.000000
   44       -3.437715   1.000000
   45       -3.427286   1.000000
   46       -3.417923   1.000000
   47       -3.399375   1.000000
   48       -3.377664   1.000000
   49       -3.338479   1.000000
   50       -3.322295   1.000000
   51       -3.294884   1.000000
   52       -3.215649   1.000000
   53       -3.192824   1.000000
   54       -3.146174   1.000000
   55       -3.105036   1.000000
   56       -3.013899   1.000000
   57       -2.944729   1.000000
   58       -2.908439   1.000000
   59       -2.881632   1.000000
   60       -2.860562   1.000000
   61       -2.801104   1.000000
   62       -2.767218   1.000000
   63       -2.740966   1.000000
   64       -2.711983   1.000000
   65       -2.687791   1.000000
   66       -2.678425   1.000000
   67       -2.643994   1.000000
   68       -2.625646   1.000000
   69       -2.589104   1.000000
   70       -2.526725   1.000000
   71       -2.509413   1.000000
   72       -2.460948   1.000000
   73       -2.431931   1.000000
   74       -2.427586   1.000000
   75       -2.403671   1.000000
   76       -2.396491   1.000000
   77       -2.382822   1.000000
   78       -2.363887   1.000000
   79       -2.354400   1.000000
   80       -2.326168   1.000000
   81       -2.310056   1.000000
   82       -2.291335   1.000000
   83       -2.279578   1.000000
   84       -2.256982   1.000000
   85       -2.244789   1.000000
   86       -2.204565   1.000000
   87       -2.196843   1.000000
   88       -2.193002   1.000000
   89       -2.018043   1.000000
   90       -1.635728   1.000000
   91       -1.055627   1.023929
   92       -0.990181   1.035330
   93       -0.808474   0.773995
   94       -0.488621  -0.035334
   95       -0.409113  -0.020718
   96       -0.272145  -0.002334
   97        0.426345  -0.000000
   98        0.531074  -0.000000
   99        0.983377  -0.000000
  100        1.534635  -0.000000
  101        1.660482  -0.000000
  102        2.002466  -0.000000
  103        2.445599  -0.000000
  104        2.889536  -0.000000
  105        3.535423  -0.000000
  106        3.647152  -0.000000
  107        3.833955  -0.000000
  108        3.884535  -0.000000
  109        4.145698  -0.000000
  110        4.651237  -0.000000
  111        4.789172   0.000000
  112        4.872618   0.000000
 
  0.2000000E+00  0.2000000E+00  0.0000000E+00  0.8000000E-01
    1      -24.467596   1.000000
    2      -10.873302   1.000000
    3       -8.947898   1.000000
    4       -8.194273   1.000000
    5       -7.544430   1.000000
    6       -7.373099   1.000000
    7       -7.291114   1.000000
    8       -5.932946   1.000000
    9       -5.619682   1.000000
   10       -5.343321   1.000000
   11       -5.286624   1.000000
   12       -5.224931   1.000000
   13       -5.199280   1.000000
   14       -5.079748   1.000000
   15       -5.059631   1.000000
   16       -4.961172   1.000000
   17       -4.820668   1.000000
   18       -4.750671   1.000000
   19       -4.689428   1.000000
   20       -4.674489   1.000000
   21       -4.665623   1.000000
   22       -4.622098   1.000000
   23       -4.602976   1.000000
   24       -4.565463   1.000000
   25       -4.357178   1.000000
   26       -4.341065   1.000000
   27       -4.290725   1.000000
   28       -3.980038   1.000000
   29       -3.940710   1.000000
   30       -3.888096   1.000000
   31       -3.866986   1.000000
   32       -3.751965   1.000000
   33       -3.706172   1.000000
   34       -3.658888   1.000000
   35       -3.648833   1.000000
   36       -3.612562   1.000000
   37       -3.586731   1.000000
   38       -3.580276   1.000000
   39       -3.565216   1.000000
   40       -3.545656   1.000000
   41       -3.511349   1.000000
   42       -3.475180   1.000000
   43       -3.456054   1.000000
   44       -3.437713   1.000000
   45       -3.427301   1.000000
   46       -3.417934   1.000000
   47       -3.399443   1.000000
   48       -3.377715   1.000000
   49       -3.338449   1.000000
   50       -3.322250   1.000000
   51       -3.294860   1.000000
   52       -3.215743   1.000000
   53       -3.192831   1.000000
   54       -3.146209   1.000000
   55       -3.105062   1.000000
   56       -3.013894   1.000000
   57       -2.944694   1.000000
   58       -2.908468   1.000000
   59       -2.881658   1.000000
   60       -2.860569   1.000000
   61       -2.801072   1.000000
   62       -2.767255   1.000000
   63       -2.740961   1.000000
   64       -2.711982   1.000000
   65       -2.687777   1.000000
   66       -2.678392   1.000000
   67       -2.643989   1.000000
   68       -2.625648   1.000000
   69       -2.589103   1.000000
   70       -2.526740   1.000000
   71       -2.509438   1.000000
   72       -2.460985   1.000000
   73       -2.431919   1.000000
   74       -2.427623   1.000000
   75       -2.403664   1.000000
   76       -2.396526   1.000000
   77       -2.382838   1.000000
   78       -2.363946   1.000000
   79       -2.354462   1.000000
   80       -2.326199   1.000000
   81       -2.310072   1.000000
   82       -2.291317   1.000000
   83       -2.279558   1.000000
   84       -2.257002   1.000000
   85       -2.244791   1.000000
   86       -2.204511   1.000000
   87       -2.196782   1.000000
   88       -2.192939   1.000000
   89       -2.018020   1.000000
   90       -1.635753   1.000000
   91       -1.055668   1.023920
   92       -0.990099   1.035334
   93       -0.808445   0.773892
   94       -0.488557  -0.035331
   95       -0.409102  -0.020715
   96       -0.272074  -0.002330
   97        0.426418  -0.000000
   98        0.531106  -0.000000
   99        0.983318  -0.000000
  100        1.534611  -0.000000
  101        1.660459  -0.000000
  102        2.002355  -0.000000
  103        2.445746  -0.000000
  104        2.889414  -0.000000
  105        3.535550  -0.000000
  106        3.647061  -0.000000
  107        3.833955  -0.000000
  108        3.884314  -0.000000
  109        4.146023  -0.000000
  110        4.651272  -0.000000
  111        4.789133   0.000000
  112        4.872809   0.000000
 
  0.4000000E+00  0.2000000E+00  0.0000000E+00  0.8000000E-01
    1      -24.467427   1.000000
    2      -10.824110   1.000000
    3       -8.432673   1.000000
    4       -7.963231   1.000000
    5       -7.555009   1.000000
    6       -7.423326   1.000000
    7       -6.907546   1.000000
    8       -5.939905   1.000000
    9       -5.929813   1.000000
   10       -5.550002   1.000000
   11       -5.360760   1.000000
   12       -5.283910   1.000000
   13       -4.996890   1.000000
   14       -4.862800   1.000000
   15       -4.832248   1.000000
   16       -4.804861   1.000000
   17       -4.757496   1.000000
   18       -4.575404   1.000000
   19       -4.549304   1.000000
   20       -4.536506   1.000000
   21       -4.500871   1.000000
   22       -4.447388   1.000000
   23       -4.422620   1.000000
   24       -4.380019   1.000000
   25       -4.226938   1.000000
   26       -4.213454   1.000000
   27       -4.194871   1.000000
   28       -4.074157   1.000000
   29       -4.010851   1.000000
   30       -3.958516   1.000000
   31       -3.942083   1.000000
   32       -3.902877   1.000000
   33       -3.828354   1.000000
   34       -3.817003   1.000000
   35       -3.764974   1.000000
   36       -3.757822   1.000000
   37       -3.703981   1.000000
   38       -3.694432   1.000000
   39       -3.644440   1.000000
   40       -3.615000   1.000000
   41       -3.572432   1.000000
   42       -3.536235   1.000000
   43       -3.507016   1.000000
   44       -3.495777   1.000000
   45       -3.464431   1.000000
   46       -3.444401   1.000000
   47       -3.405448   1.000000
   48       -3.383129   1.000000
   49       -3.358803   1.000000
   50       -3.324209   1.000000
   51       -3.302943   1.000000
   52       -3.279936   1.000000
   53       -3.235127   1.000000
   54       -3.222410   1.000000
   55       -3.174723   1.000000
   56       -3.150451   1.000000
   57       -3.123607   1.000000
   58       -3.081719   1.000000
   59       -3.077082   1.000000
   60       -3.031138   1.000000
   61       -3.006244   1.000000
   62       -2.981809   1.000000
   63       -2.965757   1.000000
   64       -2.917890   1.000000
   65       -2.913399   1.000000
   66       -2.826481   1.000000
   67       -2.777371   1.000000
   68       -2.751754   1.000000
   69       -2.726449   1.000000
   70       -2.705728   1.000000
   71       -2.660656   1.000000
   72       -2.640196   1.000000
   73       -2.607819   1.000000
   74       -2.583933   1.000000
   75       -2.567720   1.000000
   76       -2.528478   1.000000
   77       -2.438193   1.000000
   78       -2.429013   1.000000
   79       -2.421196   1.000000
   80       -2.382452   1.000000
   81       -2.378422   1.000000
   82       -2.346259   1.000000
   83       -2.342400   1.000000
   84       -2.314882   1.000000
   85       -2.284207   1.000000
   86       -2.263127   1.000000
   87       -2.237584   1.000000
   88       -2.090191   1.000000
   89       -2.055466   1.000000
   90       -1.960488   1.000000
   91       -1.872525   1.000000
   92       -1.563498   1.000000
   93       -0.877311   0.956249
   94       -0.754196   0.562593
   95        0.055773  -0.000000
   96        0.652628  -0.000000
   97        0.807898  -0.000000
   98        0.969748  -0.000000
   99        1.164843  -0.000000
  100        1.571104  -0.000000
  101        2.086378  -0.000000
  102        2.253093  -0.000000
  103        2.699808  -0.000000
  104        3.180056  -0.000000
  105        3.958129  -0.000000
  106        4.129015  -0.000000
  107        4.302217  -0.000000
  108        4.484872  -0.000000
  109        5.118231   0.000000
  110        5.275879   0.000000
  111        5.397214   0.000000
  112        5.543076   0.000000
 
 -0.4000000E+00  0.2000000E+00  0.0000000E+00  0.8000000E-01
    1      -24.467675   1.000000
    2      -10.795433   1.000000
    3       -8.046993   1.000000
    4       -7.559862   1.000000
    5       -7.509665   1.000000
    6       -7.202393   1.000000
    7       -7.125882   1.000000
    8       -6.201364   1.000000
    9       -6.073676   1.000000
   10       -5.980135   1.000000
   11       -5.345104   1.000000
   12       -5.001954   1.000000
   13       -4.885089   1.000000
   14       -4.703942   1.000000
   15       -4.617179   1.000000
   16       -4.582366   1.000000
   17       -4.543127   1.000000
   18       -4.519692   1.000000
   19       -4.470961   1.000000
   20       -4.412481   1.000000
   21       -4.328521   1.000000
   22       -4.300199   1.000000
   23       -4.275345   1.000000
   24       -4.240856   1.000000
   25       -4.213052   1.000000
   26       -4.189872   1.000000
   27       -4.168808   1.000000
   28       -4.126104   1.000000
   29       -4.063808   1.000000
   30       -4.047344   1.000000
   31       -4.026507   1.000000
   32       -4.007233   1.000000
   33       -3.992112   1.000000
   34       -3.921312   1.000000
   35       -3.863413   1.000000
   36       -3.851346   1.000000
   37       -3.817147   1.000000
   38       -3.798653   1.000000
   39       -3.775269   1.000000
   40       -3.726313   1.000000
   41       -3.701056   1.000000
   42       -3.634086   1.000000
   43       -3.624378   1.000000
   44       -3.589426   1.000000
   45       -3.582590   1.000000
   46       -3.571461   1.000000
   47       -3.516523   1.000000
   48       -3.488215   1.000000
   49       -3.432970   1.000000
   50       -3.400627   1.000000
   51       -3.362035   1.000000
   52       -3.338375   1.000000
   53       -3.322879   1.000000
   54       -3.301437   1.000000
   55       -3.256463   1.000000
   56       -3.217319   1.000000
   57       -3.163820   1.000000
   58       -3.144363   1.000000
   59       -3.090831   1.000000
   60       -3.045574   1.000000
   61       -2.997447   1.000000
   62       -2.989490   1.000000
   63       -2.975858   1.000000
   64       -2.938148   1.000000
   65       -2.879164   1.000000
   66       -2.856704   1.000000
   67       -2.834643   1.000000
   68       -2.808139   1.000000
   69       -2.768454   1.000000
   70       -2.748509   1.000000
   71       -2.740604   1.000000
   72       -2.700206   1.000000
   73       -2.649088   1.000000
   74       -2.636676   1.000000
   75       -2.608846   1.000000
   76       -2.588801   1.000000
   77       -2.540346   1.000000
   78       -2.497291   1.000000
   79       -2.484968   1.000000
   80       -2.482066   1.000000
   81       -2.471762   1.000000
   82       -2.395943   1.000000
   83       -2.379419   1.000000
   84       -2.361421   1.000000
   85       -2.342908   1.000000
   86       -2.321672   1.000000
   87       -2.306794   1.000000
   88       -2.253150   1.000000
   89       -2.171895   1.000000
   90       -1.963624   1.000000
   91       -1.818159   1.000000
   92       -1.673681   1.000000
   93       -1.153659   1.006302
   94       -0.673463   0.237243
   95        0.044956  -0.000000
   96        0.595805  -0.000000
   97        0.910953  -0.000000
   98        1.246158  -0.000000
   99        1.748830  -0.000000
  100        1.943589  -0.000000
  101        2.370692  -0.000000
  102        2.912393  -0.000000
  103        3.039235  -0.000000
  104        3.815216  -0.000000
  105        3.898931  -0.000000
  106        4.259930  -0.000000
  107        4.569726  -0.000000
  108        4.922854   0.000000
  109        5.106649   0.000000
  110        5.208923   0.000000
  111        5.639373   0.000000
  112        5.663916   0.000000
 
 -0.2000000E+00  0.2000000E+00  0.0000000E+00  0.8000000E-01
    1      -24.467433   1.000000
    2      -10.824106   1.000000
    3       -8.432661   1.000000
    4       -7.963231   1.000000
    5       -7.554675   1.000000
    6       -7.423575   1.000000
    7       -6.907506   1.000000
    8       -5.939882   1.000000
    9       -5.929834   1.000000
   10       -5.550016   1.000000
   11       -5.360715   1.000000
   12       -5.283920   1.000000
   13       -4.996899   1.000000
   14       -4.862831   1.000000
   15       -4.832251   1.000000
   16       -4.804850   1.000000
   17       -4.757522   1.000000
   18       -4.575405   1.000000
   19       -4.549331   1.000000
   20       -4.536524   1.000000
   21       -4.500817   1.000000
   22       -4.447426   1.000000
   23       -4.422627   1.000000
   24       -4.380048   1.000000
   25       -4.226901   1.000000
   26       -4.213422   1.000000
   27       -4.194878   1.000000
   28       -4.074138   1.000000
   29       -4.010880   1.000000
   30       -3.958507   1.000000
   31       -3.942086   1.000000
   32       -3.902926   1.000000
   33       -3.828369   1.000000
   34       -3.817026   1.000000
   35       -3.765034   1.000000
   36       -3.757852   1.000000
   37       -3.704012   1.000000
   38       -3.694441   1.000000
   39       -3.644382   1.000000
   40       -3.615021   1.000000
   41       -3.572446   1.000000
   42       -3.536219   1.000000
   43       -3.507025   1.000000
   44       -3.495798   1.000000
   45       -3.464435   1.000000
   46       -3.444375   1.000000
   47       -3.405438   1.000000
   48       -3.383126   1.000000
   49       -3.358811   1.000000
   50       -3.324194   1.000000
   51       -3.302946   1.000000
   52       -3.279955   1.000000
   53       -3.235063   1.000000
   54       -3.222429   1.000000
   55       -3.174675   1.000000
   56       -3.150391   1.000000
   57       -3.123590   1.000000
   58       -3.081662   1.000000
   59       -3.077060   1.000000
   60       -3.031178   1.000000
   61       -3.006164   1.000000
   62       -2.981820   1.000000
   63       -2.965741   1.000000
   64       -2.917809   1.000000
   65       -2.913383   1.000000
   66       -2.826481   1.000000
   67       -2.777346   1.000000
   68       -2.751738   1.000000
   69       -2.726445   1.000000
   70       -2.705626   1.000000
   71       -2.660574   1.000000
   72       -2.640162   1.000000
   73       -2.607819   1.000000
   74       -2.583974   1.000000
   75       -2.567706   1.000000
   76       -2.528466   1.000000
   77       -2.438216   1.000000
   78       -2.429047   1.000000
   79       -2.421254   1.000000
   80       -2.382468   1.000000
   81       -2.378444   1.000000
   82       -2.346258   1.000000
   83       -2.342389   1.000000
   84       -2.314935   1.000000
   85       -2.284240   1.000000
   86       -2.263191   1.000000
   87       -2.237605   1.000000
   88       -2.090242   1.000000
   89       -2.055500   1.000000
   90       -1.960522   1.000000
   91       -1.872540   1.000000
   92       -1.563493   1.000000
   93       -0.877320   0.956266
   94       -0.754188   0.562558
   95        0.055753  -0.000000
   96        0.652638  -0.000000
   97        0.807869  -0.000000
   98        0.969748  -0.000000
   99        1.164689  -0.000000
  100        1.571062  -0.000000
  101        2.086145  -0.000000
  102        2.253004  -0.000000
  103        2.700291  -0.000000