/home/zulissi/software/vasp/5.4.4_impi_cuda_patch0518_intel0818/bin/:/home/zulissi/software/vasp/5.4.4_impi_cuda_patch0518_intel0818/bin:/usr/local/cuda-9.0/samples-bin:/usr/local/cuda-9.0/bin:/opt/ohpc/pub/intel/intel18/compilers_and_libraries_2018.3.222/linux/mpi/intel64/bin_ohpc:/opt/ohpc/pub/intel/intel18/compilers_and_libraries_2018.3.222/linux/mpi/intel64/bin:/opt/ohpc/pub/intel/intel18/compilers_and_libraries_2018.3.222/linux/bin/intel64:/home/zulissi/GASpy_conda/bin:/opt/ohpc/pub/python/anaconda2/bin:/usr/lib64/qt-3.3/bin:/usr/local/bin:/usr/bin:/usr/local/sbin:/usr/sbin:/home/katsuyut/.local/bin:/home/katsuyut/bin:/home/katsuyut/.local/bin:/home/katsuyut/bin
/tmp
./run_vasp.py
/home/katsuyut/5.4.4
 running on   16 total cores
 distrk:  each k-point on   16 cores,    1 groups
 distr:  one band on    4 cores,    4 groups
 using from now: INCAR     
 vasp.5.4.4.18Apr17-6-g9f103f2a35 (build Aug 07 2018 15:16:41) complex          
  
 POSCAR found :  3 types and      18 ions
 scaLAPACK will be used

 ----------------------------------------------------------------------------- 
|                                                                             |
|  ADVICE TO THIS USER RUNNING 'VASP/VAMP'   (HEAR YOUR MASTER'S VOICE ...):  |
|                                                                             |
|      You enforced a specific xc-type in the INCAR file,                     |
|      a different type was found on the POTCAR file                          |
|          I HOPE YOU KNOW, WHAT YOU ARE  DOING                               |
|                                                                             |
 ----------------------------------------------------------------------------- 

 LDA part: xc-table for Pade appr. of Perdew
 POSCAR, INCAR and KPOINTS ok, starting setup
 FFT: planning ...
 WAVECAR not read
 entering main loop
       N       E                     dE             d eps       ncg     rms          rms(c)
DAV:   1     0.162541377715E+04    0.16254E+04   -0.62890E+04  2912   0.150E+03
DAV:   2     0.156647207585E+03   -0.14688E+04   -0.14182E+04  2912   0.391E+02
DAV:   3    -0.505455709584E+02   -0.20719E+03   -0.19367E+03  3888   0.191E+02
DAV:   4    -0.762852072820E+02   -0.25740E+02   -0.24217E+02  4528   0.682E+01
DAV:   5    -0.775699615138E+02   -0.12848E+01   -0.12484E+01  4376   0.173E+01    0.316E+01
DAV:   6    -0.742112808618E+02    0.33587E+01   -0.17391E+02  3472   0.149E+02    0.210E+01
DAV:   7    -0.640649863933E+02    0.10146E+02   -0.50247E+01  3424   0.108E+02    0.635E+00
DAV:   8    -0.640032520566E+02    0.61734E-01   -0.14646E+01  4688   0.659E+01    0.430E+00
DAV:   9    -0.638295480514E+02    0.17370E+00   -0.89393E+00  4184   0.497E+01    0.308E+00
DAV:  10    -0.638235065256E+02    0.60415E-02   -0.30534E+00  4064   0.299E+01    0.269E+00
DAV:  11    -0.638199223693E+02    0.35842E-02   -0.10233E+00  3344   0.146E+01    0.175E+00
DAV:  12    -0.637938678406E+02    0.26055E-01   -0.24294E-01  3480   0.851E+00    0.949E-01
DAV:  13    -0.637800894049E+02    0.13778E-01   -0.10745E-01  4032   0.554E+00    0.374E-01
DAV:  14    -0.637806916469E+02   -0.60224E-03   -0.54053E-02  3568   0.304E+00    0.237E-01
DAV:  15    -0.637812895226E+02   -0.59788E-03   -0.17375E-02  3584   0.227E+00    0.295E-01
DAV:  16    -0.637788396419E+02    0.24499E-02   -0.59720E-03  3608   0.115E+00    0.851E-02
DAV:  17    -0.637787220380E+02    0.11760E-03   -0.11276E-03  4032   0.397E-01    0.487E-02
DAV:  18    -0.637787989741E+02   -0.76936E-04   -0.56178E-04  3104   0.398E-01
   1 F= -.63778799E+02 E0= -.63783998E+02  d E =0.155971E-01
Cu_111_u2_no08_CO_n1_d8.traj, -63.78399802
