 vasp.5.4.4.18Apr17-6-g9f103f2a35 (build Aug 07 2018 15:16:41) complex          
  
 executed on             LinuxIFC date 2019.10.18  01:18:29
 running on   16 total cores
 distrk:  each k-point on   16 cores,    1 groups
 distr:  one band on NCORES_PER_BAND=   4 cores,    4 groups


--------------------------------------------------------------------------------------------------------


 INCAR:
 POTCAR:    PAW_PBE Cu 22Jun2005                  
 POTCAR:    PAW_PBE C 08Apr2002                   
 POTCAR:    PAW_PBE O 08Apr2002                   
 POTCAR:    PAW_PBE Cu 22Jun2005                  
   VRHFIN =Cu: d10 p1                                                           
   LEXCH  = PE                                                                  
   EATOM  =  1390.9808 eV,  102.2342 Ry                                         
                                                                                
   TITEL  = PAW_PBE Cu 22Jun2005                                                
   LULTRA =        F    use ultrasoft PP ?                                      
   IUNSCR =        1    unscreen: 0-lin 1-nonlin 2-no                           
   RPACOR =    2.000    partial core radius                                     
   POMASS =   63.546; ZVAL   =   11.000    mass and valenz                      
   RCORE  =    2.300    outmost cutoff radius                                   
   RWIGS  =    2.200; RWIGS  =    1.164    wigner-seitz radius (au A)           
   ENMAX  =  295.446; ENMIN  =  221.585 eV                                      
   ICORE  =        3    local potential                                         
   LCOR   =        T    correct aug charges                                     
   LPAW   =        T    paw PP                                                  
   EAUG   =  586.980                                                            
   DEXC   =    0.000                                                            
   RMAX   =    2.344    core radius for proj-oper                               
   RAUG   =    1.300    factor for augmentation sphere                          
   RDEP   =    2.302    radius for radial grids                                 
   RDEPT  =    1.771    core radius for aug-charge                              
                                                                                
   Atomic configuration                                                         
    9 entries                                                                   
     n  l   j            E        occ.                                          
     1  0  0.50     -8850.2468   2.0000                                         
     2  0  0.50     -1062.3498   2.0000                                         
     2  1  1.50      -916.8226   6.0000                                         
     3  0  0.50      -114.6929   2.0000                                         
     3  1  1.50       -72.1325   6.0000                                         
     3  2  2.50        -5.0394  10.0000                                         
     4  0  0.50        -4.6097   1.0000                                         
     4  1  0.50        -4.0817   0.0000                                         
     4  3  2.50        -1.3606   0.0000                                         
   Description                                                                  
     l       E           TYP  RCUT    TYP  RCUT                                 
     2     -5.0393973     23  2.200                                             
     2     10.8846608     23  2.200                                             
     0     -4.6097109     23  2.200                                             
     0      8.2520465     23  2.200                                             
     1     -2.7211652     23  2.200                                             
     1     21.7055443     23  2.200                                             
     3      2.7211652     23  2.300                                             
  local pseudopotential read in
  partial core-charges read in
  partial kinetic energy density read in
  atomic valenz-charges read in
  non local Contribution for L=           2  read in
    real space projection operators read in
  non local Contribution for L=           2  read in
    real space projection operators read in
  non local Contribution for L=           0  read in
    real space projection operators read in
  non local Contribution for L=           0  read in
    real space projection operators read in
  non local Contribution for L=           1  read in
    real space projection operators read in
  non local Contribution for L=           1  read in
    real space projection operators read in
    PAW grid and wavefunctions read in
 
   number of l-projection  operators is LMAX  =           6
   number of lm-projection operators is LMMAX =          18
 
 POTCAR:    PAW_PBE C 08Apr2002                   
   VRHFIN =C: s2p2                                                              
   LEXCH  = PE                                                                  
   EATOM  =   147.1560 eV,   10.8157 Ry                                         
                                                                                
   TITEL  = PAW_PBE C 08Apr2002                                                 
   LULTRA =        F    use ultrasoft PP ?                                      
   IUNSCR =        1    unscreen: 0-lin 1-nonlin 2-no                           
   RPACOR =    1.200    partial core radius                                     
   POMASS =   12.011; ZVAL   =    4.000    mass and valenz                      
   RCORE  =    1.500    outmost cutoff radius                                   
   RWIGS  =    1.630; RWIGS  =    0.863    wigner-seitz radius (au A)           
   ENMAX  =  400.000; ENMIN  =  300.000 eV                                      
   ICORE  =        2    local potential                                         
   LCOR   =        T    correct aug charges                                     
   LPAW   =        T    paw PP                                                  
   EAUG   =  644.873                                                            
   DEXC   =    0.000                                                            
   RMAX   =    1.529    core radius for proj-oper                               
   RAUG   =    1.300    factor for augmentation sphere                          
   RDEP   =    1.501    radius for radial grids                                 
   RDEPT  =    1.300    core radius for aug-charge                              
                                                                                
   Atomic configuration                                                         
    4 entries                                                                   
     n  l   j            E        occ.                                          
     1  0  0.50      -273.3789   2.0000                                         
     2  0  0.50       -13.7508   2.0000                                         
     2  1  0.50        -5.2854   2.0000                                         
     3  2  1.50        -5.4423   0.0000                                         
   Description                                                                  
     l       E           TYP  RCUT    TYP  RCUT                                 
     0    -13.7508458     23  1.200                                             
     0     -8.2022199     23  1.200                                             
     1     -5.2854383     23  1.500                                             
     1     34.0145650     23  1.500                                             
     2     -5.4423304      7  1.500                                             
  local pseudopotential read in
  partial core-charges read in
  partial kinetic energy density read in
  atomic valenz-charges read in
  non local Contribution for L=           0  read in
    real space projection operators read in
  non local Contribution for L=           0  read in
    real space projection operators read in
  non local Contribution for L=           1  read in
    real space projection operators read in
  non local Contribution for L=           1  read in
    real space projection operators read in
    PAW grid and wavefunctions read in
 
   number of l-projection  operators is LMAX  =           4
   number of lm-projection operators is LMMAX =           8
 
 POTCAR:    PAW_PBE O 08Apr2002                   
   VRHFIN =O: s2p4                                                              
   LEXCH  = PE                                                                  
   EATOM  =   432.3788 eV,   31.7789 Ry                                         
                                                                                
   TITEL  = PAW_PBE O 08Apr2002                                                 
   LULTRA =        F    use ultrasoft PP ?                                      
   IUNSCR =        1    unscreen: 0-lin 1-nonlin 2-no                           
   RPACOR =    1.200    partial core radius                                     
   POMASS =   16.000; ZVAL   =    6.000    mass and valenz                      
   RCORE  =    1.520    outmost cutoff radius                                   
   RWIGS  =    1.550; RWIGS  =    0.820    wigner-seitz radius (au A)           
   ENMAX  =  400.000; ENMIN  =  300.000 eV                                      
   ICORE  =        2    local potential                                         
   LCOR   =        T    correct aug charges                                     
   LPAW   =        T    paw PP                                                  
   EAUG   =  605.392                                                            
   DEXC   =    0.000                                                            
   RMAX   =    1.553    core radius for proj-oper                               
   RAUG   =    1.300    factor for augmentation sphere                          
   RDEP   =    1.550    radius for radial grids                                 
   RDEPT  =    1.329    core radius for aug-charge                              
                                                                                
   Atomic configuration                                                         
    4 entries                                                                   
     n  l   j            E        occ.                                          
     1  0  0.50      -514.6923   2.0000                                         
     2  0  0.50       -23.9615   2.0000                                         
     2  1  0.50        -9.0305   4.0000                                         
     3  2  1.50        -9.5241   0.0000                                         
   Description                                                                  
     l       E           TYP  RCUT    TYP  RCUT                                 
     0    -23.9615318     23  1.200                                             
     0     -9.5240782     23  1.200                                             
     1     -9.0304911     23  1.520                                             
     1      8.1634956     23  1.520                                             
     2     -9.5240782      7  1.500                                             
  local pseudopotential read in
  partial core-charges read in
  partial kinetic energy density read in
  kinetic energy density of atom read in
  atomic valenz-charges read in
  non local Contribution for L=           0  read in
    real space projection operators read in
  non local Contribution for L=           0  read in
    real space projection operators read in
  non local Contribution for L=           1  read in
    real space projection operators read in
  non local Contribution for L=           1  read in
    real space projection operators read in
    PAW grid and wavefunctions read in
 
   number of l-projection  operators is LMAX  =           4
   number of lm-projection operators is LMMAX =           8
 
 Optimization of the real space projectors (new method)

 maximal supplied QI-value         = 16.25
 optimisation between [QCUT,QGAM] = [  9.43, 19.01] = [ 24.88,101.24] Ry 
 Optimized for a Real-space Cutoff    1.66 Angstroem

   l    n(q)    QCUT    max X(q) W(low)/X(q) W(high)/X(q)  e(spline) 
   2      8     9.426     4.610    0.15E-03    0.59E-04    0.31E-06
   2      8     9.426     8.522    0.24E-03    0.87E-04    0.54E-06
   0      9     9.426    51.609    0.44E-04    0.64E-05    0.15E-06
   0      9     9.426    27.747    0.41E-04    0.65E-05    0.15E-06
   1      9     9.426    20.408    0.73E-04    0.11E-03    0.16E-06
   1      9     9.426    13.425    0.63E-04    0.98E-04    0.15E-06
 Optimization of the real space projectors (new method)

 maximal supplied QI-value         = 25.13
 optimisation between [QCUT,QGAM] = [  9.55, 19.10] = [ 25.54,102.17] Ry 
 Optimized for a Real-space Cutoff    1.39 Angstroem

   l    n(q)    QCUT    max X(q) W(low)/X(q) W(high)/X(q)  e(spline) 
   0      8     9.551   115.676    0.39E-03    0.54E-03    0.29E-06
   0      8     9.551    87.132    0.39E-03    0.54E-03    0.28E-06
   1      7     9.551     4.429    0.35E-03    0.51E-04    0.29E-06
   1      7     9.551     2.733    0.22E-03    0.42E-04    0.31E-06
 Optimization of the real space projectors (new method)

 maximal supplied QI-value         = 24.76
 optimisation between [QCUT,QGAM] = [  9.41, 19.06] = [ 24.78,101.75] Ry 
 Optimized for a Real-space Cutoff    1.48 Angstroem

   l    n(q)    QCUT    max X(q) W(low)/X(q) W(high)/X(q)  e(spline) 
   0      8     9.407    20.381    0.17E-03    0.13E-03    0.41E-06
   0      8     9.407    15.268    0.19E-03    0.15E-03    0.42E-06
   1      8     9.407     5.946    0.36E-03    0.29E-03    0.38E-06
   1      8     9.407     5.382    0.31E-03    0.24E-03    0.34E-06

 ----------------------------------------------------------------------------- 
|                                                                             |
|  ADVICE TO THIS USER RUNNING 'VASP/VAMP'   (HEAR YOUR MASTER'S VOICE ...):  |
|                                                                             |
|      You enforced a specific xc-type in the INCAR file,                     |
|      a different type was found on the POTCAR file                          |
|          I HOPE YOU KNOW, WHAT YOU ARE  DOING                               |
|                                                                             |
 ----------------------------------------------------------------------------- 

  PAW_PBE Cu 22Jun2005                  :
 energy of atom  1       EATOM=-1390.9808
 kinetic energy error for atom=    0.0356 (will be added to EATOM!!)
  PAW_PBE C 08Apr2002                   :
 energy of atom  2       EATOM= -147.1560
 kinetic energy error for atom=    0.0854 (will be added to EATOM!!)
  PAW_PBE O 08Apr2002                   :
 energy of atom  3       EATOM= -432.3788
 kinetic energy error for atom=    0.3782 (will be added to EATOM!!)
 
 
 POSCAR: Cu  C  O                                
  positions in cartesian coordinates
  No initial velocities read in
 exchange correlation table for  LEXCH =        9
   RHO(1)=    0.500       N(1)  =     2000
   RHO(2)=  100.500       N(2)  =     4000
 


--------------------------------------------------------------------------------------------------------


 ion  position               nearest neighbor table
   1  0.000  0.000  0.379-   5 2.60   3 2.60   3 2.60   4 2.60   4 2.60   2 2.60   2 2.60   6 2.60
                             7 2.60
   2  0.500  0.000  0.379-   6 2.60   4 2.60   3 2.60   4 2.60   3 2.60   1 2.60   1 2.60   5 2.60
                             8 2.60
   3  0.000  0.500  0.379-   7 2.60   1 2.60   1 2.60   2 2.60   2 2.60   4 2.60   4 2.60   5 2.60
                             8 2.60
   4  0.500  0.500  0.379-   8 2.60   2 2.60   1 2.60   2 2.60   1 2.60   3 2.60   3 2.60   7 2.60
                             6 2.60
   5  0.167  0.167  0.460-  10 2.56   9 2.58   1 2.60   7 2.60   7 2.60   8 2.60   8 2.60   6 2.60
                             6 2.60   2 2.60   3 2.60  12 2.62
   6  0.667  0.167  0.460-  10 2.56   9 2.57  11 2.57   2 2.60   8 2.60   7 2.60   8 2.60   7 2.60
                             5 2.60   5 2.60   4 2.60   1 2.60
   7  0.167  0.667  0.460-  10 2.56  11 2.58   3 2.60   5 2.60   5 2.60   6 2.60   6 2.60   8 2.60
                             8 2.60   1 2.60   4 2.60  12 2.62
   8  0.667  0.667  0.460-  11 2.58   9 2.58   4 2.60   6 2.60   5 2.60   6 2.60   5 2.60   7 2.60
                             7 2.60   3 2.60   2 2.60  12 2.61
   9  0.832  0.333  0.539-  15 2.54  13 2.57   6 2.57   8 2.58   5 2.58  12 2.59  10 2.59  11 2.59
                            11 2.61  10 2.61  12 2.62  16 2.66
  10  0.335  0.332  0.538-   6 2.56   5 2.56   7 2.56  11 2.59   9 2.59  15 2.60  12 2.60  12 2.60
                             9 2.61  11 2.61  16 2.66  14 2.66
  11  0.833  0.834  0.539-  15 2.54  13 2.57   6 2.57   8 2.58   7 2.58  12 2.59  10 2.59   9 2.59
                             9 2.61  10 2.61  12 2.62  14 2.66
  12  0.337  0.832  0.541-  13 2.53   9 2.59  11 2.59  16 2.60  14 2.60  10 2.60  10 2.60   8 2.61
                            11 2.62   9 2.62   7 2.62   5 2.62
  13  0.002  0.999  0.618-  12 2.53   9 2.57  11 2.57  16 2.58  14 2.58  15 2.60  15 2.60  14 2.63
                            16 2.63
  14  0.495  0.003  0.622-  17 2.00  13 2.58  15 2.58  16 2.59  12 2.60  16 2.61  13 2.63  15 2.63
                            10 2.66  11 2.66
  15  0.989  0.506  0.617-   9 2.54  11 2.54  14 2.58  16 2.58  10 2.60  13 2.60  13 2.60  16 2.63
                            14 2.63
  16  0.495  0.502  0.622-  17 2.00  13 2.58  15 2.58  14 2.59  12 2.60  14 2.61  13 2.63  15 2.63
                            10 2.66   9 2.66
  17  0.504  0.248  0.680-  18 1.18  14 2.00  16 2.00
  18  0.504  0.248  0.725-  17 1.18
 

IMPORTANT INFORMATION: All symmetrisations will be switched off!
NOSYMM: (Re-)initialisation of all symmetry stuff for point group C_1.

 
 
 KPOINTS: KPOINTS created by Atomic Simulation Env

Automatic generation of k-mesh.
Space group operators:
 irot       det(A)        alpha          n_x          n_y          n_z        tau_x        tau_y        tau_z
    1     1.000000     0.000000     1.000000     0.000000     0.000000     0.000000     0.000000     0.000000
 
 Subroutine IBZKPT returns following result:
 ===========================================
 
 Found     13 irreducible k-points:
 
 Following reciprocal coordinates:
            Coordinates               Weight
  0.000000  0.000000  0.000000      1.000000
  0.200000 -0.000000  0.000000      2.000000
  0.400000 -0.000000  0.000000      2.000000
  0.000000  0.200000  0.000000      2.000000
  0.200000  0.200000  0.000000      2.000000
  0.400000  0.200000  0.000000      2.000000
 -0.400000  0.200000  0.000000      2.000000
 -0.200000  0.200000  0.000000      2.000000
  0.000000  0.400000  0.000000      2.000000
  0.200000  0.400000  0.000000      2.000000
  0.400000  0.400000  0.000000      2.000000
 -0.400000  0.400000  0.000000      2.000000
 -0.200000  0.400000  0.000000      2.000000
 
 Following cartesian coordinates:
            Coordinates               Weight
  0.000000  0.000000  0.000000      1.000000
  0.038462 -0.022206  0.000000      2.000000
  0.076924 -0.044412  0.000000      2.000000
  0.000000  0.044412  0.000000      2.000000
  0.038462  0.022206  0.000000      2.000000
  0.076924  0.000000  0.000000      2.000000
 -0.076924  0.088824  0.000000      2.000000
 -0.038462  0.066618  0.000000      2.000000
  0.000000  0.088824  0.000000      2.000000
  0.038462  0.066618  0.000000      2.000000
  0.076924  0.044412  0.000000      2.000000
 -0.076924  0.133236  0.000000      2.000000
 -0.038462  0.111030  0.000000      2.000000
 


--------------------------------------------------------------------------------------------------------




 Dimension of arrays:
   k-points           NKPTS =     13   k-points in BZ     NKDIM =     13   number of bands    NBANDS=    112
   number of dos      NEDOS =    301   number of ions     NIONS =     18
   non local maximal  LDIM  =      6   non local SUM 2l+1 LMDIM =     18
   total plane-waves  NPLWV =  72576
   max r-space proj   IRMAX =   2306   max aug-charges    IRDMAX=   3604
   dimension x,y,z NGX =    24 NGY =   24 NGZ =  126
   dimension x,y,z NGXF=    48 NGYF=   48 NGZF=  252
   support grid    NGXF=    48 NGYF=   48 NGZF=  252
   ions per type =              16   1   1
   NGX,Y,Z   is equivalent  to a cutoff of   7.67,  7.67,  7.94 a.u.
   NGXF,Y,Z  is equivalent  to a cutoff of  15.35, 15.35, 15.89 a.u.

 SYSTEM =  unknown system                          
 POSCAR =  Cu  C  O                                

 Startparameter for this run:
   NWRITE =      2    write-flag & timer
   PREC   = normal    normal or accurate (medium, high low for compatibility)
   ISTART =      0    job   : 0-new  1-cont  2-samecut
   ICHARG =      2    charge: 1-file 2-atom 10-const
   ISPIN  =      1    spin polarized calculation?
   LNONCOLLINEAR =      F non collinear calculations
   LSORBIT =      F    spin-orbit coupling
   INIWAV =      1    electr: 0-lowe 1-rand  2-diag
   LASPH  =      F    aspherical Exc in radial PAW
   METAGGA=      F    non-selfconsistent MetaGGA calc.

 Electronic Relaxation 1
   ENCUT  =  350.0 eV  25.72 Ry    5.07 a.u.   7.93  7.93 40.22*2*pi/ulx,y,z
   ENINI  =  350.0     initial cutoff
   ENAUG  =  644.9 eV  augmentation charge cutoff
   NELM   =     60;   NELMIN=  2; NELMDL= -5     # of ELM steps 
   EDIFF  = 0.1E-03   stopping-criterion for ELM
   LREAL  =      T    real-space projection
   NLSPLINE    = F    spline interpolate recip. space projectors
   LCOMPAT=      F    compatible to vasp.4.4
   GGA_COMPAT  = T    GGA compatible to vasp.4.4-vasp.4.6
   LMAXPAW     = -100 max onsite density
   LMAXMIX     =    2 max onsite mixed and CHGCAR
   VOSKOWN=      0    Vosko Wilk Nusair interpolation
   ROPT   =   -0.00050  -0.00050  -0.00050
 Ionic relaxation
   EDIFFG = -.3E-01   stopping-criterion for IOM
   NSW    =      0    number of steps for IOM
   NBLOCK =      1;   KBLOCK =      1    inner block; outer block 
   IBRION =     -1    ionic relax: 0-MD 1-quasi-New 2-CG
   NFREE  =      1    steps in history (QN), initial steepest desc. (CG)
   ISIF   =      0    stress and relaxation
   IWAVPR =     10    prediction:  0-non 1-charg 2-wave 3-comb
   ISYM   =      0    0-nonsym 1-usesym 2-fastsym
   LCORR  =      T    Harris-Foulkes like correction to forces

   POTIM  = 0.5000    time-step for ionic-motion
   TEIN   =    0.0    initial temperature
   TEBEG  =    0.0;   TEEND  =   0.0 temperature during run
   SMASS  =  -3.00    Nose mass-parameter (am)
   estimated Nose-frequenzy (Omega)   =  0.10E-29 period in steps =****** mass=  -0.618E-27a.u.
   SCALEE = 1.0000    scale energy and forces
   NPACO  =    256;   APACO  = 16.0  distance and # of slots for P.C.
   PSTRESS=    0.0 pullay stress

  Mass of Ions in am
   POMASS =  63.55 12.01 16.00
  Ionic Valenz
   ZVAL   =  11.00  4.00  6.00
  Atomic Wigner-Seitz radii
   RWIGS  =   1.50  0.80  0.80
  virtual crystal weights 
   VCA    =   1.00  1.00  1.00
   NELECT =     186.0000    total number of electrons
   NUPDOWN=      -1.0000    fix difference up-down

 DOS related values:
   EMIN   =  10.00;   EMAX   =-10.00  energy-range for DOS
   EFERMI =   0.00
   ISMEAR =     1;   SIGMA  =   0.20  broadening in eV -4-tet -1-fermi 0-gaus

 Electronic relaxation 2 (details)
   IALGO  =     38    algorithm
   LDIAG  =      T    sub-space diagonalisation (order eigenvalues)
   LSUBROT=      F    optimize rotation matrix (better conditioning)
   TURBO    =      0    0=normal 1=particle mesh
   IRESTART =      0    0=no restart 2=restart with 2 vectors
   NREBOOT  =      0    no. of reboots
   NMIN     =      0    reboot dimension
   EREF     =   0.00    reference energy to select bands
   IMIX   =      4    mixing-type and parameters
     AMIX     =   0.40;   BMIX     =  1.00
     AMIX_MAG =   1.60;   BMIX_MAG =  1.00
     AMIN     =   0.10
     WC   =   100.;   INIMIX=   1;  MIXPRE=   1;  MAXMIX= -45

 Intra band minimization:
   WEIMIN = 0.0000     energy-eigenvalue tresh-hold
   EBREAK =  0.22E-06  absolut break condition
   DEPER  =   0.30     relativ break condition  

   TIME   =   0.40     timestep for ELM

  volume/ion in A,a.u.               =      34.30       231.50
  Fermi-wavevector in a.u.,A,eV,Ry     =   1.097420  2.073823 16.385914  1.204331
  Thomas-Fermi vector in A             =   2.233780
 
 Write flags
   LWAVE        =      F    write WAVECAR
   LDOWNSAMPLE  =      F    k-point downsampling of WAVECAR
   LCHARG       =      F    write CHGCAR
   LVTOT        =      F    write LOCPOT, total local potential
   LVHAR        =      F    write LOCPOT, Hartree potential only
   LELF         =      F    write electronic localiz. function (ELF)
   LORBIT       =      0    0 simple, 1 ext, 2 COOP (PROOUT), +10 PAW based schemes


 Dipole corrections
   LMONO  =      F    monopole corrections only (constant potential shift)
   LDIPOL =      F    correct potential (dipole corrections)
   IDIPOL =      0    1-x, 2-y, 3-z, 4-all directions 
   EPSILON=  1.0000000 bulk dielectric constant

 Exchange correlation treatment:
   GGA     =    RP    GGA type
   LEXCH   =     9    internal setting for exchange type
   VOSKOWN=      0    Vosko Wilk Nusair interpolation
   LHFCALC =     F    Hartree Fock is set to
   LHFONE  =     F    Hartree Fock one center treatment
   AEXX    =    0.0000 exact exchange contribution

 Linear response parameters
   LEPSILON=     F    determine dielectric tensor
   LRPA    =     F    only Hartree local field effects (RPA)
   LNABLA  =     F    use nabla operator in PAW spheres
   LVEL    =     F    velocity operator in full k-point grid
   LINTERFAST=   F  fast interpolation
   KINTER  =     0    interpolate to denser k-point grid
   CSHIFT  =0.1000    complex shift for real part using Kramers Kronig
   OMEGAMAX=  -1.0    maximum frequency
   DEG_THRESHOLD= 0.2000000E-02 threshold for treating states as degnerate
   RTIME   =   -0.100 relaxation time in fs
  (WPLASMAI=    0.000 imaginary part of plasma frequency in eV, 0.658/RTIME)
   DFIELD  = 0.0000000 0.0000000 0.0000000 field for delta impulse in time
 
 Orbital magnetization related:
   ORBITALMAG=     F  switch on orbital magnetization
   LCHIMAG   =     F  perturbation theory with respect to B field
   DQ        =  0.001000  dq finite difference perturbation B field
   LLRAUG    =     F  two centre corrections for induced B field



--------------------------------------------------------------------------------------------------------


 Static calculation
 charge density and potential will be updated during run
 non-spin polarized calculation
 Variant of blocked Davidson
 Davidson routine will perform the subspace rotation
 perform sub-space diagonalisation
    after iterative eigenvector-optimisation
 modified Broyden-mixing scheme, WC =      100.0
 initial mixing is a Kerker type mixing with AMIX =  0.4000 and BMIX =      1.0000
 Hartree-type preconditioning will be used
 using additional bands           19
 real space projection scheme for non local part
 use partial core corrections
 calculate Harris-corrections to forces 
   (improved forces if not selfconsistent)
 use gradient corrections 
 use of overlap-Matrix (Vanderbilt PP)
 Methfessel and Paxton  Order N= 1 SIGMA  =   0.20


--------------------------------------------------------------------------------------------------------


  energy-cutoff  :      350.00
  volume of cell :      617.47
      direct lattice vectors                 reciprocal lattice vectors
     5.199963631  0.000000000  0.000000000     0.192309037 -0.111029674  0.000000000
     2.599981815  4.503300603  0.000000000     0.000000000  0.222059349  0.000000000
     0.000000000  0.000000000 26.368628788     0.000000000  0.000000000  0.037923853

  length of vectors
     5.199963631  5.199963631 26.368628788     0.222059349  0.222059349  0.037923853


 
 k-points in units of 2pi/SCALE and weight: KPOINTS created by Atomic Simulation Env
   0.00000000  0.00000000  0.00000000       0.040
   0.03846181 -0.02220593  0.00000000       0.080
   0.07692361 -0.04441187  0.00000000       0.080
   0.00000000  0.04441187  0.00000000       0.080
   0.03846181  0.02220593  0.00000000       0.080
   0.07692361  0.00000000  0.00000000       0.080
  -0.07692361  0.08882374  0.00000000       0.080
  -0.03846181  0.06661780  0.00000000       0.080
   0.00000000  0.08882374  0.00000000       0.080
   0.03846181  0.06661780  0.00000000       0.080
   0.07692361  0.04441187  0.00000000       0.080
  -0.07692361  0.13323561  0.00000000       0.080
  -0.03846181  0.11102967  0.00000000       0.080
 
 k-points in reciprocal lattice and weights: KPOINTS created by Atomic Simulation Env
   0.00000000  0.00000000  0.00000000       0.040
   0.20000000 -0.00000000  0.00000000       0.080
   0.40000000 -0.00000000  0.00000000       0.080
   0.00000000  0.20000000  0.00000000       0.080
   0.20000000  0.20000000  0.00000000       0.080
   0.40000000  0.20000000  0.00000000       0.080
  -0.40000000  0.20000000  0.00000000       0.080
  -0.20000000  0.20000000  0.00000000       0.080
   0.00000000  0.40000000  0.00000000       0.080
   0.20000000  0.40000000  0.00000000       0.080
   0.40000000  0.40000000  0.00000000       0.080
  -0.40000000  0.40000000  0.00000000       0.080
  -0.20000000  0.40000000  0.00000000       0.080
 
 position of ions in fractional coordinates (direct lattice) 
   0.00000000  0.00000000  0.37923853
   0.50000000  0.00000000  0.37923853
   0.00000000  0.50000000  0.37923853
   0.50000000  0.50000000  0.37923853
   0.16666667  0.16666667  0.45974618
   0.66666667  0.16666667  0.45974618
   0.16666667  0.66666667  0.45974618
   0.66666667  0.66666667  0.45974618
   0.83248879  0.33307098  0.53916031
   0.33509512  0.33243379  0.53844507
   0.83250168  0.83441651  0.53915820
   0.33691317  0.83153294  0.54112155
   0.00202217  0.99898064  0.61816427
   0.49530183  0.00298692  0.62200661
   0.98866076  0.50566591  0.61725102
   0.49524931  0.50174250  0.62200129
   0.50443265  0.24779035  0.67988818
   0.50362631  0.24828784  0.72461490
 
 position of ions in cartesian coordinates  (Angst):
   0.00000000  0.00000000 10.00000000
   2.59998182  0.00000000 10.00000000
   1.29999091  2.25165030 10.00000000
   3.89997272  2.25165030 10.00000000
   1.29999091  0.75055010 12.12287626
   3.89997272  0.75055010 12.12287626
   2.59998182  3.00220040 12.12287626
   5.19996363  3.00220040 12.12287626
   5.19488991  1.49991874 14.21691806
   2.60680427  1.49704929 14.19805809
   6.49844619  3.75762836 14.21686247
   3.91390676  3.74464278 14.26863338
   2.60784670  4.49871013 16.30014406
   2.58331741  0.01345099 16.40146137
   6.45572219  2.27716562 16.27606309
   3.87979977  2.25949729 16.40132121
   3.26728183  1.11587445 17.92771914
   3.26438233  1.11811476 19.10710125
 


--------------------------------------------------------------------------------------------------------


 k-point  1 :   0.0000 0.0000 0.0000  plane waves:    9087
 k-point  2 :   0.2000-0.0000 0.0000  plane waves:    9166
 k-point  3 :   0.4000-0.0000 0.0000  plane waves:    9194
 k-point  4 :   0.0000 0.2000 0.0000  plane waves:    9166
 k-point  5 :   0.2000 0.2000 0.0000  plane waves:    9166
 k-point  6 :   0.4000 0.2000 0.0000  plane waves:    9184
 k-point  7 :  -0.4000 0.2000 0.0000  plane waves:    9208
 k-point  8 :  -0.2000 0.2000 0.0000  plane waves:    9184
 k-point  9 :   0.0000 0.4000 0.0000  plane waves:    9194
 k-point 10 :   0.2000 0.4000 0.0000  plane waves:    9184
 k-point 11 :   0.4000 0.4000 0.0000  plane waves:    9194
 k-point 12 :  -0.4000 0.4000 0.0000  plane waves:    9208
 k-point 13 :  -0.2000 0.4000 0.0000  plane waves:    9208

 maximum and minimum number of plane-waves per node :      2315     2241

 maximum number of plane-waves:      9208
 maximum index in each direction: 
   IXMAX=    8   IYMAX=    7   IZMAX=   40
   IXMIN=   -8   IYMIN=   -8   IZMIN=  -40


 real space projection operators:
  total allocation   :       5101.67 KBytes
  max/ min on nodes  :       1301.45       1265.33


 parallel 3D FFT for wavefunctions:
    minimum data exchange during FFTs selected (reduces bandwidth)
 parallel 3D FFT for charge:
    minimum data exchange during FFTs selected (reduces bandwidth)


 total amount of memory used by VASP MPI-rank0    51086. kBytes
=======================================================================

   base      :      30000. kBytes
   nonlr-proj:       2252. kBytes
   fftplans  :       1786. kBytes
   grid      :       3064. kBytes
   one-center:         77. kBytes
   wavefun   :      13907. kBytes
 
     INWAV:  cpu time    0.0000: real time    0.0001
 Broyden mixing: mesh for mixing (old mesh)
   NGX = 15   NGY = 15   NGZ = 81
  (NGX  = 48   NGY  = 48   NGZ  =252)
  gives a total of  18225 points

 initial charge density was supplied:
 charge density of overlapping atoms calculated
 number of electron     186.0000000 magnetization 
 keeping initial charge density in first step


--------------------------------------------------------------------------------------------------------


 Maximum index for non-local projection operator          549
 Maximum index for augmentation-charges          248 (set IRDMAX)


--------------------------------------------------------------------------------------------------------


 First call to EWALD:  gamma=   0.208
 Maximum number of real-space cells 5x 5x 1
 Maximum number of reciprocal cells 2x 2x 7

    FEWALD:  cpu time    0.0020: real time    0.0021


--------------------------------------- Iteration      1(   1)  ---------------------------------------


    POTLOK:  cpu time    0.0248: real time    0.0305
    SETDIJ:  cpu time    0.0049: real time    0.0073
     EDDAV:  cpu time    2.8293: real time    2.8595
       DOS:  cpu time    0.0022: real time    0.0038
    --------------------------------------------
      LOOP:  cpu time    2.8612: real time    2.9011

 eigenvalue-minimisations  :  2912
 total energy-change (2. order) : 0.1625414E+04  (-0.6289000E+04)
 number of electron     186.0000000 magnetization 
 augmentation part      186.0000000 magnetization 

 Free energy of the ion-electron system (eV)
  ---------------------------------------------------
  alpha Z        PSCENC =       333.59272159
  Ewald energy   TEWEN  =    110078.94530320
  -Hartree energ DENC   =   -131843.33171045
  -exchange      EXHF   =         0.00000000
  -V(xc)+E(xc)   XCENC  =       758.03337388
  PAW double counting   =     20119.38880325   -21798.78739505
  entropy T*S    EENTRO =        -0.00027609
  eigenvalues    EBANDS =      1159.89298440
  atomic energy  EATOM  =     22817.67997243
  Solvation  Ediel_sol  =         0.00000000
  ---------------------------------------------------
  free energy    TOTEN  =      1625.41377715 eV

  energy without entropy =     1625.41405324  energy(sigma->0) =     1625.41386918


--------------------------------------------------------------------------------------------------------




--------------------------------------- Iteration      1(   2)  ---------------------------------------


     EDDAV:  cpu time    2.7759: real time    2.7784
       DOS:  cpu time    0.0022: real time    0.0035
    --------------------------------------------
      LOOP:  cpu time    2.7781: real time    2.7819

 eigenvalue-minimisations  :  2912
 total energy-change (2. order) :-0.1468767E+04  (-0.1418177E+04)
 number of electron     186.0000000 magnetization 
 augmentation part      186.0000000 magnetization 

 Free energy of the ion-electron system (eV)
  ---------------------------------------------------
  alpha Z        PSCENC =       333.59272159
  Ewald energy   TEWEN  =    110078.94530320
  -Hartree energ DENC   =   -131843.33171045
  -exchange      EXHF   =         0.00000000
  -V(xc)+E(xc)   XCENC  =       758.03337388
  PAW double counting   =     20119.38880325   -21798.78739505
  entropy T*S    EENTRO =        -0.00715972
  eigenvalues    EBANDS =      -308.86670155
  atomic energy  EATOM  =     22817.67997243
  Solvation  Ediel_sol  =         0.00000000
  ---------------------------------------------------
  free energy    TOTEN  =       156.64720758 eV

  energy without entropy =      156.65436730  energy(sigma->0) =      156.64959416


--------------------------------------------------------------------------------------------------------




--------------------------------------- Iteration      1(   3)  ---------------------------------------


     EDDAV:  cpu time    3.6523: real time    3.6554
       DOS:  cpu time    0.0020: real time    0.0026
    --------------------------------------------
      LOOP:  cpu time    3.6542: real time    3.6579

 eigenvalue-minimisations  :  3888
 total energy-change (2. order) :-0.2071928E+03  (-0.1936653E+03)
 number of electron     186.0000000 magnetization 
 augmentation part      186.0000000 magnetization 

 Free energy of the ion-electron system (eV)
  ---------------------------------------------------
  alpha Z        PSCENC =       333.59272159
  Ewald energy   TEWEN  =    110078.94530320
  -Hartree energ DENC   =   -131843.33171045
  -exchange      EXHF   =         0.00000000
  -V(xc)+E(xc)   XCENC  =       758.03337388
  PAW double counting   =     20119.38880325   -21798.78739505
  entropy T*S    EENTRO =        -0.00237214
  eigenvalues    EBANDS =      -516.06426766
  atomic energy  EATOM  =     22817.67997243
  Solvation  Ediel_sol  =         0.00000000
  ---------------------------------------------------
  free energy    TOTEN  =       -50.54557096 eV

  energy without entropy =      -50.54319882  energy(sigma->0) =      -50.54478024


--------------------------------------------------------------------------------------------------------




--------------------------------------- Iteration      1(   4)  ---------------------------------------


     EDDAV:  cpu time    4.0308: real time    4.0325
       DOS:  cpu time    0.0024: real time    0.0024
    --------------------------------------------
      LOOP:  cpu time    4.0332: real time    4.0349

 eigenvalue-minimisations  :  4528
 total energy-change (2. order) :-0.2573964E+02  (-0.2421670E+02)
 number of electron     186.0000000 magnetization 
 augmentation part      186.0000000 magnetization 

 Free energy of the ion-electron system (eV)
  ---------------------------------------------------
  alpha Z        PSCENC =       333.59272159
  Ewald energy   TEWEN  =    110078.94530320
  -Hartree energ DENC   =   -131843.33171045
  -exchange      EXHF   =         0.00000000
  -V(xc)+E(xc)   XCENC  =       758.03337388
  PAW double counting   =     20119.38880325   -21798.78739505
  entropy T*S    EENTRO =        -0.00370148
  eigenvalues    EBANDS =      -541.80257465
  atomic energy  EATOM  =     22817.67997243
  Solvation  Ediel_sol  =         0.00000000
  ---------------------------------------------------
  free energy    TOTEN  =       -76.28520728 eV

  energy without entropy =      -76.28150580  energy(sigma->0) =      -76.28397346


--------------------------------------------------------------------------------------------------------




--------------------------------------- Iteration      1(   5)  ---------------------------------------


     EDDAV:  cpu time    3.8027: real time    3.8047
       DOS:  cpu time    0.0021: real time    0.0029
    CHARGE:  cpu time    0.1523: real time    0.1526
    MIXING:  cpu time    0.0010: real time    0.0029
    --------------------------------------------
      LOOP:  cpu time    3.9581: real time    3.9631

 eigenvalue-minimisations  :  4376
 total energy-change (2. order) :-0.1284754E+01  (-0.1248363E+01)
 number of electron     186.0000682 magnetization 
 augmentation part      104.8461200 magnetization 

 Broyden mixing:
  rms(total) = 0.31570E+01    rms(broyden)= 0.31556E+01
  rms(prec ) = 0.33146E+01
  weight for this iteration     100.00

 Free energy of the ion-electron system (eV)
  ---------------------------------------------------
  alpha Z        PSCENC =       333.59272159
  Ewald energy   TEWEN  =    110078.94530320
  -Hartree energ DENC   =   -131843.33171045
  -exchange      EXHF   =         0.00000000
  -V(xc)+E(xc)   XCENC  =       758.03337388
  PAW double counting   =     20119.38880325   -21798.78739505
  entropy T*S    EENTRO =        -0.00555926
  eigenvalues    EBANDS =      -543.08547110
  atomic energy  EATOM  =     22817.67997243
  Solvation  Ediel_sol  =         0.00000000
  ---------------------------------------------------
  free energy    TOTEN  =       -77.56996151 eV

  energy without entropy =      -77.56440226  energy(sigma->0) =      -77.56810843


--------------------------------------------------------------------------------------------------------




--------------------------------------- Iteration      1(   6)  ---------------------------------------


    POTLOK:  cpu time    0.0196: real time    0.0196
    SETDIJ:  cpu time    0.0044: real time    0.0044
     EDDAV:  cpu time    3.0453: real time    3.0466
       DOS:  cpu time    0.0022: real time    0.0028
    CHARGE:  cpu time    0.1628: real time    0.1629
    MIXING:  cpu time    0.0012: real time    0.0012
    --------------------------------------------
      LOOP:  cpu time    3.2354: real time    3.2374

 eigenvalue-minimisations  :  3472
 total energy-change (2. order) : 0.3358681E+01  (-0.1739054E+02)
 number of electron     186.0000831 magnetization 
 augmentation part      118.2727560 magnetization 

 Broyden mixing:
  rms(total) = 0.20961E+01    rms(broyden)= 0.20932E+01
  rms(prec ) = 0.22400E+01
  weight for this iteration     100.00

 eigenvalues of (default mixing * dielectric matrix)
  average eigenvalue GAMMA=   0.6073
  0.6073

 Free energy of the ion-electron system (eV)
  ---------------------------------------------------
  alpha Z        PSCENC =       333.59272159
  Ewald energy   TEWEN  =    110078.94530320
  -Hartree energ DENC   =   -131298.64319899
  -exchange      EXHF   =         0.00000000
  -V(xc)+E(xc)   XCENC  =       738.28140654
  PAW double counting   =     20312.65152235   -21900.74596333
  entropy T*S    EENTRO =        -0.01775212
  eigenvalues    EBANDS =     -1155.95529254
  atomic energy  EATOM  =     22817.67997243
  Solvation  Ediel_sol  =         0.00000000
  ---------------------------------------------------
  free energy    TOTEN  =       -74.21128086 eV

  energy without entropy =      -74.19352875  energy(sigma->0) =      -74.20536349


--------------------------------------------------------------------------------------------------------




--------------------------------------- Iteration      1(   7)  ---------------------------------------


    POTLOK:  cpu time    0.0225: real time    0.0228
    SETDIJ:  cpu time    0.0044: real time    0.0044
     EDDAV:  cpu time    3.3907: real time    3.3928
       DOS:  cpu time    0.0021: real time    0.0029
    CHARGE:  cpu time    0.1601: real time    0.1601
    MIXING:  cpu time    0.0011: real time    0.0011
    --------------------------------------------
      LOOP:  cpu time    3.5810: real time    3.5841

 eigenvalue-minimisations  :  3424
 total energy-change (2. order) : 0.1014629E+02  (-0.5024671E+01)
 number of electron     186.0000777 magnetization 
 augmentation part      114.4592555 magnetization 

 Broyden mixing:
  rms(total) = 0.63468E+00    rms(broyden)= 0.63365E+00
  rms(prec ) = 0.73667E+00
  weight for this iteration     100.00

 eigenvalues of (default mixing * dielectric matrix)
  average eigenvalue GAMMA=   0.5952
  0.5952  0.5952

 Free energy of the ion-electron system (eV)
  ---------------------------------------------------
  alpha Z        PSCENC =       333.59272159
  Ewald energy   TEWEN  =    110078.94530320
  -Hartree energ DENC   =   -131538.99601443
  -exchange      EXHF   =         0.00000000
  -V(xc)+E(xc)   XCENC  =       744.45082117
  PAW double counting   =     20748.09432622   -22409.38779190
  entropy T*S    EENTRO =         0.00146636
  eigenvalues    EBANDS =      -838.44579103
  atomic energy  EATOM  =     22817.67997243
  Solvation  Ediel_sol  =         0.00000000
  ---------------------------------------------------
  free energy    TOTEN  =       -64.06498639 eV

  energy without entropy =      -64.06645275  energy(sigma->0) =      -64.06547518


--------------------------------------------------------------------------------------------------------




--------------------------------------- Iteration      1(   8)  ---------------------------------------


    POTLOK:  cpu time    0.0218: real time    0.0220
    SETDIJ:  cpu time    0.0046: real time    0.0046
     EDDAV:  cpu time    4.1600: real time    4.1618
       DOS:  cpu time    0.0019: real time    0.0019
    CHARGE:  cpu time    0.1630: real time    0.1630
    MIXING:  cpu time    0.0011: real time    0.0011
    --------------------------------------------
      LOOP:  cpu time    4.3524: real time    4.3544

 eigenvalue-minimisations  :  4688
 total energy-change (2. order) : 0.6173434E-01  (-0.1464580E+01)
 number of electron     186.0000777 magnetization 
 augmentation part      113.7189144 magnetization 

 Broyden mixing:
  rms(total) = 0.42984E+00    rms(broyden)= 0.42957E+00
  rms(prec ) = 0.61740E+00
  weight for this iteration     100.00

 eigenvalues of (default mixing * dielectric matrix)
  average eigenvalue GAMMA=   0.5929
  0.7072  0.7072  0.3641

 Free energy of the ion-electron system (eV)
  ---------------------------------------------------
  alpha Z        PSCENC =       333.59272159
  Ewald energy   TEWEN  =    110078.94530320
  -Hartree energ DENC   =   -131571.60680798
  -exchange      EXHF   =         0.00000000
  -V(xc)+E(xc)   XCENC  =       745.17037919
  PAW double counting   =     20935.47917871   -22613.52286120
  entropy T*S    EENTRO =         0.03591447
  eigenvalues    EBANDS =      -789.77705246
  atomic energy  EATOM  =     22817.67997243
  Solvation  Ediel_sol  =         0.00000000
  ---------------------------------------------------
  free energy    TOTEN  =       -64.00325206 eV

  energy without entropy =      -64.03916653  energy(sigma->0) =      -64.01522355


--------------------------------------------------------------------------------------------------------




--------------------------------------- Iteration      1(   9)  ---------------------------------------


    POTLOK:  cpu time    0.0199: real time    0.0200
    SETDIJ:  cpu time    0.0042: real time    0.0042
     EDDAV:  cpu time    3.4055: real time    3.4071
       DOS:  cpu time    0.0020: real time    0.0023
    CHARGE:  cpu time    0.1843: real time    0.1844
    MIXING:  cpu time    0.0014: real time    0.0014
    --------------------------------------------
      LOOP:  cpu time    3.6173: real time    3.6195

 eigenvalue-minimisations  :  4184
 total energy-change (2. order) : 0.1737040E+00  (-0.8939271E+00)
 number of electron     186.0000767 magnetization 
 augmentation part      113.1525257 magnetization 

 Broyden mixing:
  rms(total) = 0.30785E+00    rms(broyden)= 0.30759E+00
  rms(prec ) = 0.40465E+00
  weight for this iteration     100.00

 eigenvalues of (default mixing * dielectric matrix)
  average eigenvalue GAMMA=   0.7819
  1.7502  0.5751  0.5751  0.2273

 Free energy of the ion-electron system (eV)
  ---------------------------------------------------
  alpha Z        PSCENC =       333.59272159
  Ewald energy   TEWEN  =    110078.94530320
  -Hartree energ DENC   =   -131588.36901619
  -exchange      EXHF   =         0.00000000
  -V(xc)+E(xc)   XCENC  =       745.45211406
  PAW double counting   =     21109.20417492   -22800.25628491
  entropy T*S    EENTRO =         0.00914059
  eigenvalues    EBANDS =      -760.08767374
  atomic energy  EATOM  =     22817.67997243
  Solvation  Ediel_sol  =         0.00000000
  ---------------------------------------------------
  free energy    TOTEN  =       -63.82954805 eV

  energy without entropy =      -63.83868864  energy(sigma->0) =      -63.83259491


--------------------------------------------------------------------------------------------------------




--------------------------------------- Iteration      1(  10)  ---------------------------------------


    POTLOK:  cpu time    0.0246: real time    0.0246
    SETDIJ:  cpu time    0.0052: real time    0.0052
     EDDAV:  cpu time    3.7360: real time    3.7377
       DOS:  cpu time    0.0023: real time    0.0029
    CHARGE:  cpu time    0.1805: real time    0.1805
    MIXING:  cpu time    0.0015: real time    0.0015
    --------------------------------------------
      LOOP:  cpu time    3.9502: real time    3.9525

 eigenvalue-minimisations  :  4064
 total energy-change (2. order) : 0.6041526E-02  (-0.3053444E+00)
 number of electron     186.0000768 magnetization 
 augmentation part      112.7212782 magnetization 

 Broyden mixing:
  rms(total) = 0.26945E+00    rms(broyden)= 0.26935E+00
  rms(prec ) = 0.28325E+00
  weight for this iteration     100.00

 eigenvalues of (default mixing * dielectric matrix)
  average eigenvalue GAMMA=   0.8140
  2.1508  0.6289  0.6289  0.4506  0.2106

 Free energy of the ion-electron system (eV)
  ---------------------------------------------------
  alpha Z        PSCENC =       333.59272159
  Ewald energy   TEWEN  =    110078.94530320
  -Hartree energ DENC   =   -131600.14330810
  -exchange      EXHF   =         0.00000000
  -V(xc)+E(xc)   XCENC  =       745.22013065
  PAW double counting   =     21413.55519438   -23123.10169025
  entropy T*S    EENTRO =         0.01710375
  eigenvalues    EBANDS =      -729.58893417
  atomic energy  EATOM  =     22817.67997243
  Solvation  Ediel_sol  =         0.00000000
  ---------------------------------------------------
  free energy    TOTEN  =       -63.82350653 eV

  energy without entropy =      -63.84061027  energy(sigma->0) =      -63.82920777


--------------------------------------------------------------------------------------------------------




--------------------------------------- Iteration      1(  11)  ---------------------------------------


    POTLOK:  cpu time    0.0248: real time    0.0261
    SETDIJ:  cpu time    0.0050: real time    0.0050
     EDDAV:  cpu time    3.1637: real time    3.1642
       DOS:  cpu time    0.0020: real time    0.0028
    CHARGE:  cpu time    0.1642: real time    0.1642
    MIXING:  cpu time    0.0013: real time    0.0013
    --------------------------------------------
      LOOP:  cpu time    3.3609: real time    3.3635

 eigenvalue-minimisations  :  3344
 total energy-change (2. order) : 0.3584156E-02  (-0.1023313E+00)
 number of electron     186.0000768 magnetization 
 augmentation part      112.8058217 magnetization 

 Broyden mixing:
  rms(total) = 0.17493E+00    rms(broyden)= 0.17490E+00
  rms(prec ) = 0.18651E+00
  weight for this iteration     100.00

 eigenvalues of (default mixing * dielectric matrix)
  average eigenvalue GAMMA=   0.7850
  2.3006  0.6618  0.6618  0.2204  0.4755  0.3896

 Free energy of the ion-electron system (eV)
  ---------------------------------------------------
  alpha Z        PSCENC =       333.59272159
  Ewald energy   TEWEN  =    110078.94530320
  -Hartree energ DENC   =   -131594.33816846
  -exchange      EXHF   =         0.00000000
  -V(xc)+E(xc)   XCENC  =       744.58817976
  PAW double counting   =     21518.01406389   -23230.82441386
  entropy T*S    EENTRO =         0.01452176
  eigenvalues    EBANDS =      -731.49210268
  atomic energy  EATOM  =     22817.67997243
  Solvation  Ediel_sol  =         0.00000000
  ---------------------------------------------------
  free energy    TOTEN  =       -63.81992237 eV

  energy without entropy =      -63.83444413  energy(sigma->0) =      -63.82476296


--------------------------------------------------------------------------------------------------------




--------------------------------------- Iteration      1(  12)  ---------------------------------------


    POTLOK:  cpu time    0.0206: real time    0.0207
    SETDIJ:  cpu time    0.0045: real time    0.0045
     EDDAV:  cpu time    3.1254: real time    3.1256
       DOS:  cpu time    0.0022: real time    0.0022
    CHARGE:  cpu time    0.1773: real time    0.1773
    MIXING:  cpu time    0.0014: real time    0.0014
    --------------------------------------------
      LOOP:  cpu time    3.3314: real time    3.3318

 eigenvalue-minimisations  :  3480
 total energy-change (2. order) : 0.2605453E-01  (-0.2429379E-01)
 number of electron     186.0000769 magnetization 
 augmentation part      112.9677111 magnetization 

 Broyden mixing:
  rms(total) = 0.94929E-01    rms(broyden)= 0.94912E-01
  rms(prec ) = 0.10122E+00
  weight for this iteration     100.00

 eigenvalues of (default mixing * dielectric matrix)
  average eigenvalue GAMMA=   0.8291
  2.3115  0.8956  0.7451  0.7451  0.5306  0.2181  0.3578

 Free energy of the ion-electron system (eV)
  ---------------------------------------------------
  alpha Z        PSCENC =       333.59272159
  Ewald energy   TEWEN  =    110078.94530320
  -Hartree energ DENC   =   -131587.89158893
  -exchange      EXHF   =         0.00000000
  -V(xc)+E(xc)   XCENC  =       744.21042448
  PAW double counting   =     21550.29946582   -23262.94835506
  entropy T*S    EENTRO =         0.01655105
  eigenvalues    EBANDS =      -737.69836242
  atomic energy  EATOM  =     22817.67997243
  Solvation  Ediel_sol  =         0.00000000
  ---------------------------------------------------
  free energy    TOTEN  =       -63.79386784 eV

  energy without entropy =      -63.81041889  energy(sigma->0) =      -63.79938486


--------------------------------------------------------------------------------------------------------




--------------------------------------- Iteration      1(  13)  ---------------------------------------


    POTLOK:  cpu time    0.0238: real time    0.0240
    SETDIJ:  cpu time    0.0035: real time    0.0035
     EDDAV:  cpu time    3.5636: real time    3.5640
       DOS:  cpu time    0.0020: real time    0.0033
    CHARGE:  cpu time    0.1559: real time    0.1560
    MIXING:  cpu time    0.0013: real time    0.0013
    --------------------------------------------
      LOOP:  cpu time    3.7502: real time    3.7520

 eigenvalue-minimisations  :  4032
 total energy-change (2. order) : 0.1377844E-01  (-0.1074494E-01)
 number of electron     186.0000770 magnetization 
 augmentation part      113.1533223 magnetization 

 Broyden mixing:
  rms(total) = 0.37372E-01    rms(broyden)= 0.37335E-01
  rms(prec ) = 0.45533E-01
  weight for this iteration     100.00

 eigenvalues of (default mixing * dielectric matrix)
  average eigenvalue GAMMA=   0.7863
  2.3058  0.9846  0.6863  0.6863  0.6555  0.4331  0.2169  0.3223

 Free energy of the ion-electron system (eV)
  ---------------------------------------------------
  alpha Z        PSCENC =       333.59272159
  Ewald energy   TEWEN  =    110078.94530320
  -Hartree energ DENC   =   -131585.02561731
  -exchange      EXHF   =         0.00000000
  -V(xc)+E(xc)   XCENC  =       743.90284920
  PAW double counting   =     21558.63776891   -23269.67478422
  entropy T*S    EENTRO =         0.01458823
  eigenvalues    EBANDS =      -741.85289143
  atomic energy  EATOM  =     22817.67997243
  Solvation  Ediel_sol  =         0.00000000
  ---------------------------------------------------
  free energy    TOTEN  =       -63.78008940 eV

  energy without entropy =      -63.79467763  energy(sigma->0) =      -63.78495215


--------------------------------------------------------------------------------------------------------




--------------------------------------- Iteration      1(  14)  ---------------------------------------


    POTLOK:  cpu time    0.0201: real time    0.0208
    SETDIJ:  cpu time    0.0044: real time    0.0044
     EDDAV:  cpu time    3.5332: real time    3.5334
       DOS:  cpu time    0.0021: real time    0.0036
    CHARGE:  cpu time    0.1596: real time    0.1596
    MIXING:  cpu time    0.0014: real time    0.0014
    --------------------------------------------
      LOOP:  cpu time    3.7208: real time    3.7232

 eigenvalue-minimisations  :  3568
 total energy-change (2. order) :-0.6022421E-03  (-0.5405316E-02)
 number of electron     186.0000772 magnetization 
 augmentation part      113.2508925 magnetization 

 Broyden mixing:
  rms(total) = 0.23688E-01    rms(broyden)= 0.23644E-01
  rms(prec ) = 0.26415E-01
  weight for this iteration     100.00

 eigenvalues of (default mixing * dielectric matrix)
  average eigenvalue GAMMA=   0.8519
  2.0842  2.0189  0.7411  0.7411  0.5551  0.5551  0.2172  0.4119  0.3426

 Free energy of the ion-electron system (eV)
  ---------------------------------------------------
  alpha Z        PSCENC =       333.59272159
  Ewald energy   TEWEN  =    110078.94530320
  -Hartree energ DENC   =   -131584.83840076
  -exchange      EXHF   =         0.00000000
  -V(xc)+E(xc)   XCENC  =       743.87297371
  PAW double counting   =     21554.59054012   -23264.74211497
  entropy T*S    EENTRO =         0.01594797
  eigenvalues    EBANDS =      -742.89763493
  atomic energy  EATOM  =     22817.67997243
  Solvation  Ediel_sol  =         0.00000000
  ---------------------------------------------------
  free energy    TOTEN  =       -63.78069165 eV

  energy without entropy =      -63.79663962  energy(sigma->0) =      -63.78600764


--------------------------------------------------------------------------------------------------------




--------------------------------------- Iteration      1(  15)  ---------------------------------------


    POTLOK:  cpu time    0.0223: real time    0.0232
    SETDIJ:  cpu time    0.0046: real time    0.0046
     EDDAV:  cpu time    3.4461: real time    3.4464
       DOS:  cpu time    0.0022: real time    0.0037
    CHARGE:  cpu time    0.1630: real time    0.1631
    MIXING:  cpu time    0.0016: real time    0.0016
    --------------------------------------------
      LOOP:  cpu time    3.6398: real time    3.6425

 eigenvalue-minimisations  :  3584
 total energy-change (2. order) :-0.5978757E-03  (-0.1737461E-02)
 number of electron     186.0000772 magnetization 
 augmentation part      113.2827648 magnetization 

 Broyden mixing:
  rms(total) = 0.29541E-01    rms(broyden)= 0.29531E-01
  rms(prec ) = 0.32528E-01
  weight for this iteration     100.00

 eigenvalues of (default mixing * dielectric matrix)
  average eigenvalue GAMMA=   0.8844
  2.2701  2.2701  0.8406  0.8406  0.6397  0.6397  0.4590  0.2172  0.3597  0.3079

 Free energy of the ion-electron system (eV)
  ---------------------------------------------------
  alpha Z        PSCENC =       333.59272159
  Ewald energy   TEWEN  =    110078.94530320
  -Hartree energ DENC   =   -131588.12368538
  -exchange      EXHF   =         0.00000000
  -V(xc)+E(xc)   XCENC  =       743.87412867
  PAW double counting   =     21553.90497168   -23263.63829681
  entropy T*S    EENTRO =         0.01564582
  eigenvalues    EBANDS =      -740.03205070
  atomic energy  EATOM  =     22817.67997243
  Solvation  Ediel_sol  =         0.00000000
  ---------------------------------------------------
  free energy    TOTEN  =       -63.78128952 eV

  energy without entropy =      -63.79693534  energy(sigma->0) =      -63.78650479


--------------------------------------------------------------------------------------------------------




--------------------------------------- Iteration      1(  16)  ---------------------------------------


    POTLOK:  cpu time    0.0205: real time    0.0212
    SETDIJ:  cpu time    0.0046: real time    0.0046
     EDDAV:  cpu time    3.0283: real time    3.0285
       DOS:  cpu time    0.0019: real time    0.0019
    CHARGE:  cpu time    0.1566: real time    0.1566
    MIXING:  cpu time    0.0016: real time    0.0016
    --------------------------------------------
      LOOP:  cpu time    3.2135: real time    3.2144

 eigenvalue-minimisations  :  3608
 total energy-change (2. order) : 0.2449881E-02  (-0.5971992E-03)
 number of electron     186.0000771 magnetization 
 augmentation part      113.2301261 magnetization 

 Broyden mixing:
  rms(total) = 0.85141E-02    rms(broyden)= 0.84918E-02
  rms(prec ) = 0.95343E-02
  weight for this iteration     100.00

 eigenvalues of (default mixing * dielectric matrix)
  average eigenvalue GAMMA=   0.8886
  2.3825  2.2495  0.9029  0.9029  0.6552  0.6552  0.6495  0.2172  0.4624  0.3789
  0.3186

 Free energy of the ion-electron system (eV)
  ---------------------------------------------------
  alpha Z        PSCENC =       333.59272159
  Ewald energy   TEWEN  =    110078.94530320
  -Hartree energ DENC   =   -131594.17967147
  -exchange      EXHF   =         0.00000000
  -V(xc)+E(xc)   XCENC  =       743.97765710
  PAW double counting   =     21559.37634601   -23269.81887016
  entropy T*S    EENTRO =         0.01537217
  eigenvalues    EBANDS =      -733.36767051
  atomic energy  EATOM  =     22817.67997243
  Solvation  Ediel_sol  =         0.00000000
  ---------------------------------------------------
  free energy    TOTEN  =       -63.77883964 eV

  energy without entropy =      -63.79421181  energy(sigma->0) =      -63.78396370


--------------------------------------------------------------------------------------------------------




--------------------------------------- Iteration      1(  17)  ---------------------------------------


    POTLOK:  cpu time    0.0196: real time    0.0197
    SETDIJ:  cpu time    0.0044: real time    0.0044
     EDDAV:  cpu time    3.3837: real time    3.3839
       DOS:  cpu time    0.0017: real time    0.0024
    CHARGE:  cpu time    0.1506: real time    0.1506
    MIXING:  cpu time    0.0016: real time    0.0016
    --------------------------------------------
      LOOP:  cpu time    3.5616: real time    3.5626

 eigenvalue-minimisations  :  4032
 total energy-change (2. order) : 0.1176039E-03  (-0.1127637E-03)
 number of electron     186.0000771 magnetization 
 augmentation part      113.2164852 magnetization 

 Broyden mixing:
  rms(total) = 0.48687E-02    rms(broyden)= 0.48664E-02
  rms(prec ) = 0.57560E-02
  weight for this iteration     100.00

 eigenvalues of (default mixing * dielectric matrix)
  average eigenvalue GAMMA=   0.8821
  2.4330  2.1505  0.9923  0.8823  0.8823  0.6812  0.6812  0.2172  0.5128  0.4599
  0.3704  0.3226

 Free energy of the ion-electron system (eV)
  ---------------------------------------------------
  alpha Z        PSCENC =       333.59272159
  Ewald energy   TEWEN  =    110078.94530320
  -Hartree energ DENC   =   -131595.50692415
  -exchange      EXHF   =         0.00000000
  -V(xc)+E(xc)   XCENC  =       744.00432375
  PAW double counting   =     21558.13213978   -23268.65957996
  entropy T*S    EENTRO =         0.01559501
  eigenvalues    EBANDS =      -731.98227368
  atomic energy  EATOM  =     22817.67997243
  Solvation  Ediel_sol  =         0.00000000
  ---------------------------------------------------
  free energy    TOTEN  =       -63.77872204 eV

  energy without entropy =      -63.79431705  energy(sigma->0) =      -63.78392037


--------------------------------------------------------------------------------------------------------




--------------------------------------- Iteration      1(  18)  ---------------------------------------


    POTLOK:  cpu time    0.0195: real time    0.0203
    SETDIJ:  cpu time    0.0043: real time    0.0042
     EDDAV:  cpu time    3.1865: real time    3.1867
       DOS:  cpu time    0.0019: real time    0.0026
    --------------------------------------------
      LOOP:  cpu time    3.2122: real time    3.2138

 eigenvalue-minimisations  :  3104
 total energy-change (2. order) :-0.7693613E-04  (-0.5617767E-04)
 number of electron     186.0000771 magnetization 
 augmentation part      113.2164852 magnetization 

 Free energy of the ion-electron system (eV)
  ---------------------------------------------------
  alpha Z        PSCENC =       333.59272159
  Ewald energy   TEWEN  =    110078.94530320
  -Hartree energ DENC   =   -131596.75304271
  -exchange      EXHF   =         0.00000000
  -V(xc)+E(xc)   XCENC  =       744.01375162
  PAW double counting   =     21557.94282419   -23268.53975834
  entropy T*S    EENTRO =         0.01559712
  eigenvalues    EBANDS =      -730.67616808
  atomic energy  EATOM  =     22817.67997243
  Solvation  Ediel_sol  =         0.00000000
  ---------------------------------------------------
  free energy    TOTEN  =       -63.77879897 eV

  energy without entropy =      -63.79439610  energy(sigma->0) =      -63.78399802


--------------------------------------------------------------------------------------------------------




 average (electrostatic) potential at core
  the test charge radii are     0.9430  0.6991  0.7215
  (the norm of the test charge is              1.0000)
       1 -71.8625       2 -71.8702       3 -71.8473       4 -71.8703       5 -72.0611
       6 -72.0237       7 -72.0611       8 -72.0485       9 -72.0051      10 -71.9764
      11 -72.0051      12 -72.0226      13 -71.8588      14 -72.4436      15 -71.8696
      16 -72.4434      17 -58.3272      18 -79.1170
 
 
 
 E-fermi :  -0.7394     XC(G=0):  -5.0525     alpha+bet : -4.3918


 k-point     1 :       0.0000    0.0000    0.0000
  band No.  band energies     occupation 
      1     -24.4669      2.00000
      2     -10.9185      2.00000
      3      -9.2263      2.00000
      4      -8.3456      2.00000
      5      -7.5004      2.00000
      6      -7.4807      2.00000
      7      -7.3508      2.00000
      8      -6.1400      2.00000
      9      -5.5275      2.00000
     10      -5.3044      2.00000
     11      -5.2818      2.00000
     12      -5.2693      2.00000
     13      -5.1593      2.00000
     14      -5.1524      2.00000
     15      -5.1401      2.00000
     16      -4.9901      2.00000
     17      -4.8451      2.00000
     18      -4.8141      2.00000
     19      -4.7707      2.00000
     20      -4.7645      2.00000
     21      -4.7641      2.00000
     22      -4.7337      2.00000
     23      -4.7250      2.00000
     24      -4.6819      2.00000
     25      -4.4252      2.00000
     26      -4.4015      2.00000
     27      -4.3346      2.00000
     28      -3.9619      2.00000
     29      -3.9176      2.00000
     30      -3.8652      2.00000
     31      -3.7504      2.00000
     32      -3.7284      2.00000
     33      -3.6511      2.00000
     34      -3.6491      2.00000
     35      -3.6420      2.00000
     36      -3.6007      2.00000
     37      -3.5919      2.00000
     38      -3.5528      2.00000
     39      -3.5133      2.00000
     40      -3.4913      2.00000
     41      -3.4888      2.00000
     42      -3.4762      2.00000
     43      -3.4735      2.00000
     44      -3.4611      2.00000
     45      -3.4539      2.00000
     46      -3.3650      2.00000
     47      -3.3114      2.00000
     48      -3.3112      2.00000
     49      -3.3047      2.00000
     50      -3.2687      2.00000
     51      -3.2635      2.00000
     52      -3.2058      2.00000
     53      -3.0821      2.00000
     54      -3.0799      2.00000
     55      -3.0650      2.00000
     56      -2.9632      2.00000
     57      -2.9029      2.00000
     58      -2.8215      2.00000
     59      -2.7806      2.00000
     60      -2.7622      2.00000
     61      -2.7349      2.00000
     62      -2.6624      2.00000
     63      -2.6370      2.00000
     64      -2.6186      2.00000
     65      -2.5926      2.00000
     66      -2.5198      2.00000
     67      -2.5006      2.00000
     68      -2.4915      2.00000
     69      -2.4800      2.00000
     70      -2.3796      2.00000
     71      -2.3590      2.00000
     72      -2.3554      2.00000
     73      -2.3423      2.00000
     74      -2.3407      2.00000
     75      -2.3293      2.00000
     76      -2.3205      2.00000
     77      -2.3089      2.00000
     78      -2.2706      2.00000
     79      -2.2604      2.00000
     80      -2.2514      2.00000
     81      -2.2477      2.00000
     82      -2.2206      2.00000
     83      -2.1750      2.00000
     84      -2.1583      2.00000
     85      -2.1542      2.00000
     86      -2.1000      2.00000
     87      -2.0940      2.00000
     88      -2.0900      2.00000
     89      -1.4712      2.00000
     90      -1.0975      2.02957
     91      -0.9250      2.03199
     92      -0.8967      1.97301
     93      -0.3174     -0.01104
     94      -0.2668     -0.00419
     95       0.0116     -0.00000
     96       0.2692     -0.00000
     97       0.3408     -0.00000
     98       0.4676     -0.00000
     99       0.5538     -0.00000
    100       0.7362     -0.00000
    101       0.7601     -0.00000
    102       0.8162     -0.00000
    103       1.9629     -0.00000
    104       2.2691     -0.00000
    105       3.2595     -0.00000
    106       3.3105     -0.00000
    107       3.4285     -0.00000
    108       3.5557     -0.00000
    109       3.5922     -0.00000
    110       4.2607     -0.00000
    111       4.5150     -0.00000
    112       4.5334     -0.00000

 k-point     2 :       0.2000   -0.0000    0.0000
  band No.  band energies     occupation 
      1     -24.4676      2.00000
      2     -10.8790      2.00000
      3      -8.9471      2.00000
      4      -8.2008      2.00000
      5      -7.5086      2.00000
      6      -7.4173      2.00000
      7      -7.2830      2.00000
      8      -5.9444      2.00000
      9      -5.5957      2.00000
     10      -5.3552      2.00000
     11      -5.2470      2.00000
     12      -5.2138      2.00000
     13      -5.2124      2.00000
     14      -5.0808      2.00000
     15      -5.0627      2.00000
     16      -4.8980      2.00000
     17      -4.8492      2.00000
     18      -4.7709      2.00000
     19      -4.6928      2.00000
     20      -4.6682      2.00000
     21      -4.6680      2.00000
     22      -4.6213      2.00000
     23      -4.5876      2.00000
     24      -4.5694      2.00000
     25      -4.3485      2.00000
     26      -4.3352      2.00000
     27      -4.2883      2.00000
     28      -3.9553      2.00000
     29      -3.9284      2.00000
     30      -3.8965      2.00000
     31      -3.8374      2.00000
     32      -3.7423      2.00000
     33      -3.7255      2.00000
     34      -3.6695      2.00000
     35      -3.6287      2.00000
     36      -3.6175      2.00000
     37      -3.6014      2.00000
     38      -3.5725      2.00000
     39      -3.5410      2.00000
     40      -3.5255      2.00000
     41      -3.5237      2.00000
     42      -3.5117      2.00000
     43      -3.4681      2.00000
     44      -3.4384      2.00000
     45      -3.4218      2.00000
     46      -3.4140      2.00000
     47      -3.3991      2.00000
     48      -3.3978      2.00000
     49      -3.3712      2.00000
     50      -3.3229      2.00000
     51      -3.2602      2.00000
     52      -3.2480      2.00000
     53      -3.2047      2.00000
     54      -3.1987      2.00000
     55      -3.1007      2.00000
     56      -2.9871      2.00000
     57      -2.9310      2.00000
     58      -2.9194      2.00000
     59      -2.8915      2.00000
     60      -2.8329      2.00000
     61      -2.8255      2.00000
     62      -2.7874      2.00000
     63      -2.7780      2.00000
     64      -2.7141      2.00000
     65      -2.6851      2.00000
     66      -2.6792      2.00000
     67      -2.6481      2.00000
     68      -2.6205      2.00000
     69      -2.5708      2.00000
     70      -2.5220      2.00000
     71      -2.4977      2.00000
     72      -2.4507      2.00000
     73      -2.4424      2.00000
     74      -2.4295      2.00000
     75      -2.4225      2.00000
     76      -2.3833      2.00000
     77      -2.3788      2.00000
     78      -2.3741      2.00000
     79      -2.3459      2.00000
     80      -2.3295      2.00000
     81      -2.3101      2.00000
     82      -2.2947      2.00000
     83      -2.2667      2.00000
     84      -2.2427      2.00000
     85      -2.2347      2.00000
     86      -2.2155      2.00000
     87      -2.1951      2.00000
     88      -2.1652      2.00000
     89      -2.0881      2.00000
     90      -1.6951      2.00000
     91      -1.0753      2.03888
     92      -0.9495      2.05922
     93      -0.7766      1.30917
     94      -0.4263     -0.04935
     95      -0.4179     -0.04547
     96      -0.2465     -0.00271
     97       0.3467     -0.00000
     98       0.4749     -0.00000
     99       1.2679     -0.00000
    100       1.3494     -0.00000
    101       1.6896     -0.00000
    102       1.9996     -0.00000
    103       2.2647     -0.00000
    104       3.0322     -0.00000
    105       3.5463     -0.00000
    106       3.7202     -0.00000
    107       3.7523     -0.00000
    108       3.8848     -0.00000
    109       4.1725     -0.00000
    110       4.6334     -0.00000
    111       4.7921      0.00000
    112       4.8998      0.00000

 k-point     3 :       0.4000   -0.0000    0.0000
  band No.  band energies     occupation 
      1     -24.4677      2.00000
      2     -10.8182      2.00000
      3      -8.2435      2.00000
      4      -7.8519      2.00000
      5      -7.5209      2.00000
      6      -7.4739      2.00000
      7      -6.7956      2.00000
      8      -6.6345      2.00000
      9      -5.8024      2.00000
     10      -5.3308      2.00000
     11      -5.1103      2.00000
     12      -5.0730      2.00000
     13      -4.9137      2.00000
     14      -4.9044      2.00000
     15      -4.8474      2.00000
     16      -4.8264      2.00000
     17      -4.6727      2.00000
     18      -4.6257      2.00000
     19      -4.5859      2.00000
     20      -4.4755      2.00000
     21      -4.4498      2.00000
     22      -4.4201      2.00000
     23      -4.3744      2.00000
     24      -4.2913      2.00000
     25      -4.1757      2.00000
     26      -4.1680      2.00000
     27      -4.1567      2.00000
     28      -4.0850      2.00000
     29      -4.0381      2.00000
     30      -4.0233      2.00000
     31      -3.9364      2.00000
     32      -3.9117      2.00000
     33      -3.8592      2.00000
     34      -3.8331      2.00000
     35      -3.8058      2.00000
     36      -3.7770      2.00000
     37      -3.7481      2.00000
     38      -3.7367      2.00000
     39      -3.7028      2.00000
     40      -3.6587      2.00000
     41      -3.6147      2.00000
     42      -3.5380      2.00000
     43      -3.5374      2.00000
     44      -3.5095      2.00000
     45      -3.4706      2.00000
     46      -3.4526      2.00000
     47      -3.4222      2.00000
     48      -3.3573      2.00000
     49      -3.3449      2.00000
     50      -3.3421      2.00000
     51      -3.3304      2.00000
     52      -3.2864      2.00000
     53      -3.2773      2.00000
     54      -3.2518      2.00000
     55      -3.2399      2.00000
     56      -3.2054      2.00000
     57      -3.2015      2.00000
     58      -3.1500      2.00000
     59      -3.1360      2.00000
     60      -3.1015      2.00000
     61      -3.0524      2.00000
     62      -3.0078      2.00000
     63      -2.9718      2.00000
     64      -2.9162      2.00000
     65      -2.8713      2.00000
     66      -2.8685      2.00000
     67      -2.8433      2.00000
     68      -2.8172      2.00000
     69      -2.7513      2.00000
     70      -2.7293      2.00000
     71      -2.7279      2.00000
     72      -2.6905      2.00000
     73      -2.6786      2.00000
     74      -2.6726      2.00000
     75      -2.6267      2.00000
     76      -2.5958      2.00000
     77      -2.5931      2.00000
     78      -2.5406      2.00000
     79      -2.5181      2.00000
     80      -2.4995      2.00000
     81      -2.4236      2.00000
     82      -2.3831      2.00000
     83      -2.3128      2.00000
     84      -2.3031      2.00000
     85      -2.2864      2.00000
     86      -2.2593      2.00000
     87      -2.2379      2.00000
     88      -2.2190      2.00000
     89      -2.1683      2.00000
     90      -1.8074      2.00000
     91      -1.3151      2.00036
     92      -0.9815      2.07085
     93      -0.8311      1.69301
     94      -0.5685     -0.00540
     95      -0.4155     -0.04435
     96       0.0742     -0.00000
     97       0.3944     -0.00000
     98       0.6918     -0.00000
     99       1.0559     -0.00000
    100       1.7935     -0.00000
    101       2.0774     -0.00000
    102       2.5896     -0.00000
    103       3.1453     -0.00000
    104       3.7147     -0.00000
    105       4.2394     -0.00000
    106       4.5257     -0.00000
    107       4.7601      0.00000
    108       4.7754      0.00000
    109       5.0225      0.00000
    110       5.5372      0.00000
    111       5.6767      0.00000
    112       5.7940      0.00000

 k-point     4 :       0.0000    0.2000    0.0000
  band No.  band energies     occupation 
      1     -24.4676      2.00000
      2     -10.8733      2.00000
      3      -8.9479      2.00000
      4      -8.1943      2.00000
      5      -7.5442      2.00000
      6      -7.3732      2.00000
      7      -7.2910      2.00000
      8      -5.9329      2.00000
      9      -5.6197      2.00000
     10      -5.3433      2.00000
     11      -5.2866      2.00000
     12      -5.2249      2.00000
     13      -5.1993      2.00000
     14      -5.0797      2.00000
     15      -5.0596      2.00000
     16      -4.9612      2.00000
     17      -4.8207      2.00000
     18      -4.7507      2.00000
     19      -4.6895      2.00000
     20      -4.6745      2.00000
     21      -4.6655      2.00000
     22      -4.6221      2.00000
     23      -4.6030      2.00000
     24      -4.5655      2.00000
     25      -4.3572      2.00000
     26      -4.3410      2.00000
     27      -4.2907      2.00000
     28      -3.9800      2.00000
     29      -3.9407      2.00000
     30      -3.8881      2.00000
     31      -3.8670      2.00000
     32      -3.7520      2.00000
     33      -3.7062      2.00000
     34      -3.6589      2.00000
     35      -3.6489      2.00000
     36      -3.6126      2.00000
     37      -3.5867      2.00000
     38      -3.5803      2.00000
     39      -3.5652      2.00000
     40      -3.5457      2.00000
     41      -3.5114      2.00000
     42      -3.4752      2.00000
     43      -3.4560      2.00000
     44      -3.4377      2.00000
     45      -3.4273      2.00000
     46      -3.4179      2.00000
     47      -3.3994      2.00000
     48      -3.3777      2.00000
     49      -3.3385      2.00000
     50      -3.3223      2.00000
     51      -3.2949      2.00000
     52      -3.2156      2.00000
     53      -3.1928      2.00000
     54      -3.1462      2.00000
     55      -3.1050      2.00000
     56      -3.0139      2.00000
     57      -2.9447      2.00000
     58      -2.9084      2.00000
     59      -2.8816      2.00000
     60      -2.8606      2.00000
     61      -2.8011      2.00000
     62      -2.7672      2.00000
     63      -2.7410      2.00000
     64      -2.7120      2.00000
[...]
      7      -7.1607      2.00000
      8      -6.1906      2.00000
      9      -6.1086      2.00000
     10      -6.0061      2.00000
     11      -5.3277      2.00000
     12      -5.0165      2.00000
     13      -4.9364      2.00000
     14      -4.6853      2.00000
     15      -4.6197      2.00000
     16      -4.5700      2.00000
     17      -4.5539      2.00000
     18      -4.5434      2.00000
     19      -4.4736      2.00000
     20      -4.3748      2.00000
     21      -4.3333      2.00000
     22      -4.3026      2.00000
     23      -4.2762      2.00000
     24      -4.2465      2.00000
     25      -4.2285      2.00000
     26      -4.2029      2.00000
     27      -4.1571      2.00000
     28      -4.1245      2.00000
     29      -4.1027      2.00000
     30      -4.0641      2.00000
     31      -4.0315      2.00000
     32      -4.0082      2.00000
     33      -3.9996      2.00000
     34      -3.9471      2.00000
     35      -3.9031      2.00000
     36      -3.8458      2.00000
     37      -3.8301      2.00000
     38      -3.7855      2.00000
     39      -3.7515      2.00000
     40      -3.7171      2.00000
     41      -3.6669      2.00000
     42      -3.6387      2.00000
     43      -3.6223      2.00000
     44      -3.5924      2.00000
     45      -3.5830      2.00000
     46      -3.5359      2.00000
     47      -3.5206      2.00000
     48      -3.4635      2.00000
     49      -3.4336      2.00000
     50      -3.3739      2.00000
     51      -3.3573      2.00000
     52      -3.3251      2.00000
     53      -3.3211      2.00000
     54      -3.2828      2.00000
     55      -3.2513      2.00000
     56      -3.2299      2.00000
     57      -3.1813      2.00000
     58      -3.1347      2.00000
     59      -3.0717      2.00000
     60      -3.0277      2.00000
     61      -3.0189      2.00000
     62      -2.9594      2.00000
     63      -2.9230      2.00000
     64      -2.9115      2.00000
     65      -2.9008      2.00000
     66      -2.8492      2.00000
     67      -2.8228      2.00000
     68      -2.7938      2.00000
     69      -2.7734      2.00000
     70      -2.7612      2.00000
     71      -2.7307      2.00000
     72      -2.7004      2.00000
     73      -2.6586      2.00000
     74      -2.6266      2.00000
     75      -2.5945      2.00000
     76      -2.5780      2.00000
     77      -2.5596      2.00000
     78      -2.5053      2.00000
     79      -2.4942      2.00000
     80      -2.4856      2.00000
     81      -2.4638      2.00000
     82      -2.4250      2.00000
     83      -2.3882      2.00000
     84      -2.3766      2.00000
     85      -2.3454      2.00000
     86      -2.3192      2.00000
     87      -2.2909      2.00000
     88      -2.2801      2.00000
     89      -2.1394      2.00000
     90      -1.9683      2.00000
     91      -1.7980      2.00000
     92      -1.7440      2.00000
     93      -1.1184      2.02211
     94      -0.5429     -0.04637
     95      -0.1994     -0.00091
     96       0.7385     -0.00000
     97       0.9211     -0.00000
     98       1.2868     -0.00000
     99       1.5244     -0.00000
    100       1.9669     -0.00000
    101       2.4175     -0.00000
    102       3.0316     -0.00000
    103       3.1857     -0.00000
    104       3.7237     -0.00000
    105       3.9084     -0.00000
    106       4.0378     -0.00000
    107       4.7132     -0.00000
    108       4.9138      0.00000
    109       5.1035      0.00000
    110       5.1419      0.00000
    111       5.5726      0.00000
    112       5.6621      0.00000

 k-point    13 :      -0.2000    0.4000    0.0000
  band No.  band energies     occupation 
      1     -24.4677      2.00000
      2     -10.7859      2.00000
      3      -8.0098      2.00000
      4      -7.6648      2.00000
      5      -7.4246      2.00000
      6      -7.1776      2.00000
      7      -7.1607      2.00000
      8      -6.1906      2.00000
      9      -6.1085      2.00000
     10      -6.0061      2.00000
     11      -5.3277      2.00000
     12      -5.0165      2.00000
     13      -4.9364      2.00000
     14      -4.6853      2.00000
     15      -4.6198      2.00000
     16      -4.5700      2.00000
     17      -4.5539      2.00000
     18      -4.5434      2.00000
     19      -4.4736      2.00000
     20      -4.3748      2.00000
     21      -4.3333      2.00000
     22      -4.3026      2.00000
     23      -4.2762      2.00000
     24      -4.2465      2.00000
     25      -4.2286      2.00000
     26      -4.2028      2.00000
     27      -4.1571      2.00000
     28      -4.1245      2.00000
     29      -4.1027      2.00000
     30      -4.0641      2.00000
     31      -4.0315      2.00000
     32      -4.0082      2.00000
     33      -3.9996      2.00000
     34      -3.9471      2.00000
     35      -3.9032      2.00000
     36      -3.8458      2.00000
     37      -3.8301      2.00000
     38      -3.7856      2.00000
     39      -3.7515      2.00000
     40      -3.7171      2.00000
     41      -3.6669      2.00000
     42      -3.6387      2.00000
     43      -3.6223      2.00000
     44      -3.5925      2.00000
     45      -3.5830      2.00000
     46      -3.5359      2.00000
     47      -3.5207      2.00000
     48      -3.4635      2.00000
     49      -3.4335      2.00000
     50      -3.3739      2.00000
     51      -3.3573      2.00000
     52      -3.3251      2.00000
     53      -3.3212      2.00000
     54      -3.2828      2.00000
     55      -3.2513      2.00000
     56      -3.2300      2.00000
     57      -3.1813      2.00000
     58      -3.1348      2.00000
     59      -3.0717      2.00000
     60      -3.0277      2.00000
     61      -3.0188      2.00000
     62      -2.9593      2.00000
     63      -2.9230      2.00000
     64      -2.9114      2.00000
     65      -2.9008      2.00000
     66      -2.8492      2.00000
     67      -2.8228      2.00000
     68      -2.7938      2.00000
     69      -2.7735      2.00000
     70      -2.7611      2.00000
     71      -2.7307      2.00000
     72      -2.7004      2.00000
     73      -2.6586      2.00000
     74      -2.6265      2.00000
     75      -2.5945      2.00000
     76      -2.5780      2.00000
     77      -2.5595      2.00000
     78      -2.5053      2.00000
     79      -2.4941      2.00000
     80      -2.4855      2.00000
     81      -2.4638      2.00000
     82      -2.4250      2.00000
     83      -2.3883      2.00000
     84      -2.3767      2.00000
     85      -2.3453      2.00000
     86      -2.3192      2.00000
     87      -2.2910      2.00000
     88      -2.2802      2.00000
     89      -2.1394      2.00000
     90      -1.9684      2.00000
     91      -1.7981      2.00000
     92      -1.7441      2.00000
     93      -1.1183      2.02212
     94      -0.5429     -0.04634
     95      -0.1994     -0.00091
     96       0.7384     -0.00000
     97       0.9210     -0.00000
     98       1.2867     -0.00000
     99       1.5247     -0.00000
    100       1.9667     -0.00000
    101       2.4172     -0.00000
    102       3.0315     -0.00000
    103       3.1865     -0.00000
    104       3.7235     -0.00000
    105       3.9085     -0.00000
    106       4.0377     -0.00000
    107       4.7127     -0.00000
    108       4.9137      0.00000
    109       5.1017      0.00000
    110       5.1450      0.00000
    111       5.5731      0.00000
    112       5.6752      0.00000


--------------------------------------------------------------------------------------------------------


 soft charge-density along one line, spin component           1
         0         1         2         3         4         5         6         7         8         9
 total charge-density along one line
 
 pseudopotential strength for first ion, spin component:           1
 -8.727   0.000  -0.001  -0.005  -0.000  -0.317  -0.000   0.001
  0.000  -8.681  -0.000   0.001  -0.004  -0.000  -0.354  -0.000
 -0.001  -0.000  -8.676   0.000   0.001   0.001  -0.000  -0.359
 -0.005   0.001   0.000  -8.682   0.000   0.003  -0.001   0.000
 -0.000  -0.004   0.001   0.000  -8.727   0.000   0.003  -0.001
 -0.317  -0.000   0.001   0.003   0.000   7.223   0.000  -0.001
 -0.000  -0.354  -0.000  -0.001   0.003   0.000   7.250   0.000
  0.001  -0.000  -0.359   0.000  -0.001  -0.001   0.000   7.254
  0.003  -0.001   0.000  -0.353  -0.000  -0.003   0.000  -0.000
  0.000   0.003  -0.001  -0.000  -0.317  -0.000  -0.002   0.000
 -0.000  -0.000  -0.009   0.000   0.000  -0.000   0.000   0.004
 -0.000  -0.000  -0.016   0.000   0.000  -0.000   0.000   0.007
  0.000  -0.009   0.000  -0.000   0.001  -0.000   0.008  -0.000
 -0.000  -0.000  -0.009   0.000   0.000   0.000   0.000   0.007
  0.000  -0.000  -0.000  -0.009   0.000   0.000   0.000   0.000
  0.001  -0.011   0.000  -0.000   0.001  -0.001   0.010  -0.000
 -0.000  -0.000  -0.010   0.001   0.000   0.000   0.000   0.008
  0.000  -0.000  -0.000  -0.011   0.001   0.000   0.000   0.000
 total augmentation occupancy for first ion, spin component:           1
  1.901  -0.001  -0.000  -0.006  -0.001  -0.022   0.000   0.000   0.005   0.000   0.003  -0.000   0.000   0.000   0.007  -0.000
 -0.001   1.924   0.000   0.000  -0.007   0.000  -0.038  -0.000  -0.000   0.005   0.002   0.000   0.012  -0.001  -0.000  -0.011
 -0.000   0.000   1.921  -0.001   0.000   0.000  -0.000  -0.033   0.000  -0.000   0.002   0.013   0.001   0.054  -0.002  -0.000
 -0.006   0.000  -0.001   1.924  -0.001   0.005  -0.000   0.000  -0.038   0.000  -0.003  -0.001  -0.000   0.001   0.012  -0.000
 -0.001  -0.007   0.000  -0.001   1.900   0.000   0.005  -0.000   0.000  -0.022  -0.002   0.000   0.008   0.000   0.000  -0.001
 -0.022   0.000   0.000   0.005   0.000   0.012  -0.000  -0.000   0.000  -0.000  -0.001  -0.000  -0.000  -0.000   0.002  -0.000
  0.000  -0.038  -0.000  -0.000   0.005  -0.000   0.009   0.000  -0.000   0.000  -0.000  -0.000   0.014   0.000   0.000  -0.001
  0.000  -0.000  -0.033   0.000  -0.000  -0.000   0.000   0.012  -0.000   0.000  -0.040   0.002  -0.000   0.019   0.000   0.000
  0.005  -0.000   0.000  -0.038   0.000   0.000  -0.000  -0.000   0.009  -0.000   0.001   0.000   0.000  -0.000   0.014  -0.000
  0.000   0.005  -0.000   0.000  -0.022  -0.000   0.000   0.000  -0.000   0.012   0.001   0.000   0.002   0.000  -0.000  -0.000
  0.003   0.002   0.002  -0.003  -0.002  -0.001  -0.000  -0.040   0.001   0.001   1.598  -0.118  -0.001   0.122   0.001   0.000
 -0.000   0.000   0.013  -0.001   0.000  -0.000  -0.000   0.002   0.000   0.000  -0.118   0.014   0.000  -0.019  -0.000  -0.000
  0.000   0.012   0.001  -0.000   0.008  -0.000   0.014  -0.000   0.000   0.002  -0.001   0.000   0.188  -0.002   0.002  -0.011
  0.000  -0.001   0.054   0.001   0.000  -0.000   0.000   0.019  -0.000   0.000   0.122  -0.019  -0.002   0.110   0.003   0.000
  0.007  -0.000  -0.002   0.012   0.000   0.002   0.000   0.000   0.014  -0.000   0.001  -0.000   0.002   0.003   0.186  -0.000
 -0.000  -0.011  -0.000  -0.000  -0.001  -0.000  -0.001   0.000  -0.000  -0.000   0.000  -0.000  -0.011   0.000  -0.000   0.001
 -0.000   0.000  -0.016  -0.000  -0.000   0.000  -0.000  -0.001   0.000  -0.000  -0.017   0.002   0.000  -0.007  -0.000  -0.000
 -0.001  -0.000   0.000  -0.011  -0.000  -0.000  -0.000  -0.000  -0.001  -0.000  -0.000   0.000  -0.000  -0.000  -0.011   0.000


------------------------ aborting loop because EDIFF is reached ----------------------------------------


    CHARGE:  cpu time    0.1543: real time    0.1543
    FORLOC:  cpu time    0.0067: real time    0.0067
    FORNL :  cpu time    0.5987: real time    0.5987
    FORCOR:  cpu time    0.0289: real time    0.0289
    FORHAR:  cpu time    0.0104: real time    0.0104
    MIXING:  cpu time    0.0016: real time    0.0016
    OFIELD:  cpu time    0.0000: real time    0.0001

 VOLUME and BASIS-vectors are now :
 -----------------------------------------------------------------------------
  energy-cutoff  :      350.00
  volume of cell :      617.47
      direct lattice vectors                 reciprocal lattice vectors
     5.199963631  0.000000000  0.000000000     0.192309037 -0.111029674  0.000000000
     2.599981815  4.503300603  0.000000000     0.000000000  0.222059349  0.000000000
     0.000000000  0.000000000 26.368628788     0.000000000  0.000000000  0.037923853

  length of vectors
     5.199963631  5.199963631 26.368628788     0.222059349  0.222059349  0.037923853


 FORCES acting on ions
    electron-ion (+dipol)            ewald-force                    non-local-force                 convergence-correction
 -----------------------------------------------------------------------------------------------
   -.283E+00 0.163E+00 0.394E+04   0.329E+00 -.190E+00 -.394E+04   -.708E-01 0.409E-01 -.265E+01   -.155E-02 0.876E-03 -.159E+00
   0.421E+00 0.400E+00 0.394E+04   -.328E+00 -.258E+00 -.394E+04   -.839E-01 -.120E+00 -.202E+01   0.416E-02 0.220E-02 -.157E+00
   0.321E-01 -.184E-01 0.394E+04   -.606E-01 0.347E-01 -.394E+04   0.511E-01 -.294E-01 -.219E+01   -.250E-02 0.150E-02 -.155E+00
   -.136E+00 -.564E+00 0.394E+04   0.596E-01 0.412E+00 -.394E+04   0.621E-01 0.133E+00 -.202E+01   0.674E-04 -.479E-02 -.157E+00
   0.242E+01 0.700E+01 0.149E+04   -.235E+01 -.692E+01 -.149E+04   -.958E-01 -.140E+00 -.105E+01   -.142E-02 0.113E-01 0.384E-01
   -.255E+01 0.147E+01 0.149E+04   0.226E+01 -.130E+01 -.149E+04   0.348E+00 -.201E+00 -.107E+01   -.212E-02 0.113E-02 0.458E-01
   -.486E+01 -.559E+01 0.149E+04   0.483E+01 0.549E+01 -.149E+04   0.736E-01 0.153E+00 -.105E+01   -.107E-01 -.449E-02 0.387E-01
   0.465E+01 -.268E+01 0.149E+04   -.446E+01 0.257E+01 -.149E+04   -.236E+00 0.136E+00 -.106E+01   0.126E-01 -.710E-02 0.316E-01
   0.165E+01 0.170E+00 -.980E+03   -.201E+01 -.252E+00 0.980E+03   0.365E+00 0.864E-01 0.583E+00   -.236E-02 -.529E-02 0.172E+00
   -.619E-02 0.147E-01 -.971E+03   0.305E-01 -.291E-01 0.971E+03   -.385E-01 0.222E-01 0.146E+00   -.172E-02 0.140E-02 0.180E+00
   0.699E+00 -.152E+01 -.980E+03   -.810E+00 0.188E+01 0.980E+03   0.107E+00 -.359E+00 0.583E+00   0.376E-02 0.446E-02 0.172E+00
   -.782E+00 0.424E+00 -.103E+04   0.963E+00 -.528E+00 0.103E+04   -.187E+00 0.108E+00 0.783E+00   0.345E-03 -.392E-03 0.171E+00
   -.147E+02 0.844E+01 -.346E+04   0.168E+02 -.962E+01 0.345E+04   -.203E+01 0.117E+01 0.345E+01   -.189E-01 0.110E-01 0.263E+00
   0.399E+02 0.657E+02 -.345E+04   -.417E+02 -.687E+02 0.345E+04   0.177E+01 0.290E+01 0.771E+00   0.105E-01 0.628E-02 0.244E+00
   0.114E+02 -.651E+01 -.343E+04   -.129E+02 0.741E+01 0.343E+04   0.155E+01 -.894E+00 0.315E+01   0.805E-02 -.480E-02 0.247E+00
   -.370E+02 -.674E+02 -.345E+04   0.387E+02 0.704E+02 0.345E+04   -.162E+01 -.299E+01 0.772E+00   0.590E-04 -.123E-01 0.244E+00
   -.139E+01 0.892E+00 -.147E+04   0.139E+01 -.898E+00 0.146E+04   0.124E-01 0.214E-02 0.149E+02   0.591E-03 -.319E-03 0.580E-01
   0.462E+00 -.353E+00 -.246E+04   -.617E+00 0.471E+00 0.252E+04   0.170E+00 -.126E+00 -.578E+02   0.120E-03 -.595E-04 0.562E-01
 -----------------------------------------------------------------------------------------------
   -.143E+00 0.102E+00 0.445E+02   -.490E-13 -.455E-13 -.182E-11   0.147E+00 -.102E+00 -.458E+02   -.987E-03 0.689E-03 0.134E+01
 
 
 POSITION                                       TOTAL-FORCE (eV/Angst)
 -----------------------------------------------------------------------------------
      0.00000      0.00000     10.00000        -0.026238      0.015073      0.021238
      2.59998      0.00000     10.00000         0.013543      0.024357      0.067483
      1.29999      2.25165     10.00000         0.019965     -0.011612      0.048318
      3.89997      2.25165     10.00000        -0.014399     -0.024054      0.067418
      1.29999      0.75055     12.12288        -0.028929     -0.049461     -0.012616
      3.89997      0.75055     12.12288         0.053687     -0.031036     -0.050309
      2.59998      3.00220     12.12288         0.028273      0.049543     -0.012747
      5.19996      3.00220     12.12288        -0.036030      0.020678     -0.001372
      5.19489      1.49992     14.21692        -0.000448     -0.000380     -0.016832
      2.60680      1.49705     14.19806        -0.015991      0.009180     -0.010871
      6.49845      3.75763     14.21686         0.000114      0.000597     -0.016858
      3.91391      3.74464     14.26863        -0.005720      0.003284     -0.012307
      2.60785      4.49871     16.30014        -0.012000      0.007012     -0.001630
      2.58332      0.01345     16.40146        -0.001341     -0.012475     -0.022820
      6.45572      2.27717     16.27606        -0.005502      0.002948      0.001508
      3.87980      2.25950     16.40132         0.010273      0.007292     -0.022966
      3.26728      1.11587     17.92772         0.006454     -0.003474     -0.004711
      3.26438      1.11811     19.10710         0.014290     -0.007471     -0.019926
 -----------------------------------------------------------------------------------
    total drift:                                0.002836      0.000014     -0.048985


--------------------------------------------------------------------------------------------------------



  FREE ENERGIE OF THE ION-ELECTRON SYSTEM (eV)
  ---------------------------------------------------
  free  energy   TOTEN  =       -63.77879897 eV

  energy  without entropy=      -63.79439610  energy(sigma->0) =      -63.78399802
 


--------------------------------------------------------------------------------------------------------


    POTLOK:  cpu time    0.0278: real time    0.0279


--------------------------------------------------------------------------------------------------------


     LOOP+:  cpu time   64.6477: real time   64.7403
    4ORBIT:  cpu time    0.0000: real time    0.0000

volume of typ            1:    36.6 %

volume of typ            2:     0.3 %

volume of typ            3:     0.3 %
 
total charge     
 
# of ion       s       p       d       tot
------------------------------------------
    1        0.661   0.510   9.479  10.651
    2        0.661   0.512   9.477  10.650
    3        0.661   0.511   9.479  10.652
    4        0.661   0.512   9.477  10.650
    5        0.658   0.674   9.504  10.835
    6        0.664   0.670   9.514  10.848
    7        0.658   0.674   9.504  10.835
    8        0.660   0.674   9.503  10.837
    9        0.669   0.688   9.504  10.861
   10        0.666   0.680   9.503  10.848
   11        0.669   0.688   9.504  10.861
   12        0.660   0.689   9.497  10.847
   13        0.654   0.541   9.500  10.695
   14        0.672   0.712   9.498  10.883
   15        0.655   0.536   9.498  10.689
   16        0.672   0.712   9.498  10.883
   17        0.827   1.389   0.081   2.298
   18        1.441   3.188   0.042   4.671
--------------------------------------------------
tot          12.87   14.56  152.06  179.49
 

 total amount of memory used by VASP MPI-rank0    51086. kBytes
=======================================================================

   base      :      30000. kBytes
   nonlr-proj:       2252. kBytes
   fftplans  :       1786. kBytes
   grid      :       3064. kBytes
   one-center:         77. kBytes
   wavefun   :      13907. kBytes
 
  
  
 General timing and accounting informations for this job:
 ========================================================
  
                  Total CPU time used (sec):       67.260
                            User time (sec):       65.453
                          System time (sec):        1.807
                         Elapsed time (sec):       69.070
  
                   Maximum memory used (kb):       95772.
                   Average memory used (kb):           0.
  
                          Minor page faults:        30773
                          Major page faults:           80
                 Voluntary context switches:          945
