PROCAR new format
# of k-points:   13         # of bands:  112         # of ions:   18

 k-point     1 :    0.00000000 0.00000000 0.00000000     weight = 0.04000000

band     1 # energy  -24.46692918 # occ.  2.00000000
 
ion      s      p      d    tot
    1  0.000  0.000  0.000  0.000
    2  0.000  0.000  0.000  0.000
    3  0.000  0.000  0.000  0.000
    4  0.000  0.000  0.000  0.000
    5  0.000  0.000  0.000  0.000
    6  0.000  0.000  0.000  0.000
    7  0.000  0.000  0.000  0.000
    8  0.000  0.000  0.000  0.000
    9  0.000  0.000  0.000  0.000
   10  0.000  0.000  0.000  0.000
   11  0.000  0.000  0.000  0.000
   12  0.000  0.000  0.000  0.000
   13  0.000  0.000  0.000  0.000
   14  0.000  0.000  0.000  0.001
   15  0.000  0.000  0.000  0.000
   16  0.000  0.000  0.000  0.001
   17  0.131  0.096  0.014  0.242
   18  0.560  0.078  0.005  0.643
tot    0.692  0.175  0.020  0.887
 
band     2 # energy  -10.91853412 # occ.  2.00000000
 
ion      s      p      d    tot
    1  0.000  0.000  0.000  0.000
    2  0.000  0.000  0.000  0.000
    3  0.000  0.000  0.000  0.000
    4  0.000  0.000  0.000  0.000
    5  0.000  0.000  0.000  0.000
    6  0.000  0.000  0.000  0.000
    7  0.000  0.000  0.000  0.000
    8  0.000  0.000  0.000  0.000
    9  0.003  0.000  0.000  0.004
   10  0.004  0.001  0.000  0.005
   11  0.003  0.000  0.000  0.004
   12  0.004  0.001  0.000  0.005
   13  0.017  0.001  0.003  0.021
   14  0.069  0.027  0.031  0.127
   15  0.016  0.001  0.002  0.019
   16  0.069  0.027  0.031  0.127
   17  0.231  0.019  0.000  0.250
   18  0.102  0.100  0.002  0.204
tot    0.520  0.179  0.069  0.768
 
band     3 # energy   -9.22627001 # occ.  2.00000000
 
ion      s      p      d    tot
    1  0.026  0.003  0.000  0.029
    2  0.026  0.003  0.000  0.029
    3  0.026  0.003  0.000  0.029
    4  0.026  0.003  0.000  0.029
    5  0.087  0.000  0.000  0.087
    6  0.088  0.001  0.000  0.089
    7  0.087  0.000  0.000  0.087
    8  0.087  0.000  0.000  0.087
    9  0.080  0.001  0.000  0.081
   10  0.079  0.001  0.000  0.080
   11  0.080  0.001  0.000  0.081
   12  0.077  0.001  0.000  0.078
   13  0.020  0.004  0.000  0.023
   14  0.014  0.005  0.000  0.020
   15  0.020  0.004  0.000  0.024
   16  0.014  0.005  0.000  0.020
   17  0.009  0.004  0.000  0.013
   18  0.011  0.034  0.000  0.046
tot    0.857  0.074  0.003  0.933
 
band     4 # energy   -8.34556394 # occ.  2.00000000
 
ion      s      p      d    tot
    1  0.030  0.002  0.000  0.033
    2  0.030  0.002  0.000  0.033
    3  0.030  0.002  0.000  0.033
    4  0.030  0.002  0.000  0.033
    5  0.030  0.002  0.001  0.033
    6  0.030  0.002  0.001  0.034
    7  0.030  0.002  0.001  0.033
    8  0.030  0.002  0.001  0.033
    9  0.003  0.007  0.000  0.010
   10  0.003  0.007  0.000  0.011
   11  0.003  0.007  0.000  0.010
   12  0.005  0.007  0.000  0.013
   13  0.036  0.000  0.003  0.039
   14  0.059  0.003  0.011  0.073
   15  0.035  0.000  0.003  0.038
   16  0.059  0.003  0.011  0.073
   17  0.003  0.083  0.001  0.086
   18  0.037  0.221  0.003  0.260
tot    0.484  0.356  0.037  0.878
 
band     5 # energy   -7.50040967 # occ.  2.00000000
 
ion      s      p      d    tot
    1  0.000  0.000  0.000  0.000
    2  0.000  0.000  0.000  0.000
    3  0.000  0.000  0.000  0.000
    4  0.000  0.000  0.000  0.000
    5  0.000  0.000  0.000  0.000
    6  0.000  0.000  0.000  0.000
    7  0.000  0.000  0.000  0.000
    8  0.000  0.000  0.000  0.000
    9  0.000  0.000  0.000  0.000
   10  0.000  0.000  0.000  0.000
   11  0.000  0.000  0.000  0.000
   12  0.000  0.000  0.001  0.001
   13  0.000  0.000  0.002  0.002
   14  0.014  0.009  0.026  0.048
   15  0.000  0.000  0.002  0.002
   16  0.014  0.009  0.026  0.048
   17  0.000  0.177  0.005  0.181
   18  0.000  0.384  0.005  0.389
tot    0.028  0.579  0.066  0.673
 
band     6 # energy   -7.48073921 # occ.  2.00000000
 
ion      s      p      d    tot
    1  0.051  0.001  0.003  0.056
    2  0.051  0.001  0.003  0.056
    3  0.051  0.001  0.003  0.056
    4  0.051  0.001  0.003  0.056
    5  0.004  0.014  0.000  0.018
    6  0.004  0.014  0.001  0.019
    7  0.004  0.014  0.000  0.018
    8  0.004  0.014  0.000  0.018
    9  0.057  0.001  0.004  0.063
   10  0.052  0.001  0.006  0.059
   11  0.057  0.001  0.004  0.063
   12  0.049  0.000  0.007  0.056
   13  0.010  0.008  0.004  0.022
   14  0.000  0.026  0.034  0.061
   15  0.012  0.008  0.003  0.023
   16  0.000  0.026  0.034  0.060
   17  0.007  0.080  0.001  0.088
   18  0.009  0.109  0.001  0.119
tot    0.474  0.321  0.115  0.910
 
band     7 # energy   -7.35075545 # occ.  2.00000000
 
ion      s      p      d    tot
    1  0.000  0.000  0.000  0.000
    2  0.000  0.000  0.000  0.000
    3  0.000  0.000  0.000  0.000
    4  0.000  0.000  0.000  0.000
    5  0.000  0.000  0.000  0.000
    6  0.000  0.000  0.000  0.000
    7  0.000  0.000  0.000  0.000
    8  0.000  0.000  0.000  0.000
    9  0.000  0.000  0.000  0.000
   10  0.000  0.000  0.000  0.000
   11  0.000  0.000  0.000  0.000
   12  0.000  0.000  0.000  0.000
   13  0.003  0.002  0.005  0.011
   14  0.000  0.003  0.019  0.022
   15  0.003  0.002  0.005  0.009
   16  0.000  0.003  0.019  0.022
   17  0.000  0.164  0.005  0.169
   18  0.000  0.406  0.005  0.411
tot    0.006  0.579  0.059  0.644
 
band     8 # energy   -6.14004778 # occ.  2.00000000
 
ion      s      p      d    tot
    1  0.047  0.001  0.024  0.072
    2  0.048  0.001  0.024  0.073
    3  0.047  0.001  0.024  0.072
    4  0.048  0.001  0.024  0.073
    5  0.025  0.008  0.018  0.052
    6  0.023  0.008  0.020  0.050
    7  0.025  0.008  0.018  0.052
    8  0.023  0.008  0.019  0.050
    9  0.000  0.018  0.002  0.020
   10  0.001  0.016  0.001  0.018
   11  0.000  0.018  0.002  0.020
   12  0.002  0.013  0.001  0.016
   13  0.058  0.001  0.018  0.077
   14  0.016  0.008  0.064  0.089
   15  0.060  0.001  0.017  0.079
   16  0.016  0.008  0.064  0.089
   17  0.008  0.018  0.000  0.026
   18  0.000  0.013  0.000  0.013
tot    0.448  0.151  0.342  0.941
 
band     9 # energy   -5.52745761 # occ.  2.00000000
 
ion      s      p      d    tot
    1  0.009  0.002  0.017  0.027
    2  0.008  0.002  0.018  0.028
    3  0.012  0.001  0.014  0.027
    4  0.008  0.002  0.018  0.028
    5  0.011  0.001  0.052  0.063
    6  0.023  0.000  0.039  0.062
    7  0.011  0.001  0.052  0.063
    8  0.015  0.000  0.048  0.063
    9  0.013  0.000  0.068  0.081
   10  0.013  0.000  0.058  0.072
   11  0.013  0.000  0.068  0.081
   12  0.038  0.000  0.036  0.074
   13  0.027  0.001  0.037  0.065
   14  0.008  0.000  0.082  0.090
   15  0.030  0.001  0.033  0.064
   16  0.008  0.000  0.082  0.090
   17  0.002  0.003  0.000  0.005
   18  0.000  0.002  0.000  0.002
tot    0.248  0.016  0.721  0.984
 
band    10 # energy   -5.30441600 # occ.  2.00000000
 
ion      s      p      d    tot
    1  0.010  0.002  0.005  0.017
    2  0.000  0.002  0.019  0.021
    3  0.002  0.002  0.015  0.020
    4  0.000  0.002  0.019  0.021
    5  0.002  0.001  0.104  0.106
    6  0.017  0.001  0.080  0.098
    7  0.002  0.001  0.104  0.106
    8  0.058  0.001  0.017  0.075
    9  0.002  0.000  0.092  0.094
   10  0.052  0.000  0.025  0.078
   11  0.002  0.000  0.092  0.094
   12  0.015  0.000  0.073  0.088
   13  0.023  0.003  0.005  0.031
   14  0.001  0.002  0.051  0.054
   15  0.005  0.002  0.029  0.036
   16  0.001  0.002  0.051  0.054
   17  0.000  0.000  0.000  0.000
   18  0.000  0.005  0.000  0.005
tot    0.190  0.027  0.783  0.999
 
band    11 # energy   -5.28177969 # occ.  2.00000000
 
ion      s      p      d    tot
    1  0.000  0.002  0.021  0.023
    2  0.007  0.003  0.011  0.021
    3  0.000  0.002  0.021  0.023
    4  0.007  0.003  0.011  0.021
    5  0.040  0.001  0.050  0.091
    6  0.000  0.001  0.118  0.119
    7  0.040  0.001  0.050  0.091
    8  0.000  0.001  0.119  0.120
    9  0.040  0.001  0.048  0.088
   10  0.000  0.001  0.094  0.095
   11  0.040  0.001  0.048  0.088
   12  0.000  0.000  0.096  0.096
   13  0.000  0.002  0.029  0.031
   14  0.008  0.002  0.016  0.026
   15  0.000  0.003  0.031  0.033
   16  0.008  0.002  0.016  0.026
   17  0.000  0.000  0.000  0.000
   18  0.000  0.004  0.000  0.004
tot    0.191  0.028  0.779  0.998
 
band    12 # energy   -5.26932824 # occ.  2.00000000
 
ion      s      p      d    tot
    1  0.001  0.003  0.021  0.025
    2  0.004  0.002  0.017  0.023
    3  0.005  0.002  0.011  0.019
    4  0.004  0.002  0.017  0.023
    5  0.018  0.001  0.084  0.103
    6  0.040  0.001  0.055  0.096
    7  0.018  0.001  0.084  0.103
    8  0.002  0.000  0.102  0.104
    9  0.021  0.001  0.075  0.097
   10  0.010  0.001  0.083  0.094
   11  0.020  0.001  0.075  0.097
   12  0.019  0.001  0.060  0.081
   13  0.001  0.002  0.020  0.023
   14  0.003  0.003  0.031  0.037
   15  0.005  0.003  0.021  0.029
   16  0.003  0.003  0.031  0.037
   17  0.001  0.001  0.000  0.002
   18  0.000  0.005  0.000  0.005
tot    0.177  0.033  0.786  0.996
 
band    13 # energy   -5.15930978 # occ.  2.00000000
 
ion      s      p      d    tot
    1  0.000  0.003  0.022  0.025
    2  0.001  0.002  0.017  0.019
    3  0.001  0.001  0.005  0.007
    4  0.000  0.002  0.017  0.019
    5  0.005  0.001  0.094  0.099
    6  0.015  0.000  0.026  0.042
    7  0.005  0.001  0.093  0.099
    8  0.000  0.001  0.123  0.125
    9  0.008  0.001  0.100  0.109
   10  0.000  0.001  0.132  0.133
   11  0.008  0.001  0.101  0.109
   12  0.023  0.000  0.032  0.055
   13  0.000  0.004  0.034  0.039
   14  0.000  0.002  0.036  0.038
   15  0.001  0.001  0.010  0.012
   16  0.000  0.002  0.036  0.039
   17  0.000  0.000  0.000  0.000
   18  0.000  0.001  0.000  0.001
tot    0.068  0.024  0.876  0.969
 
band    14 # energy   -5.15235256 # occ.  2.00000000
 
ion      s      p      d    tot
    1  0.000  0.003  0.023  0.026
    2  0.001  0.001  0.008  0.010
    3  0.000  0.003  0.023  0.026
    4  0.001  0.001  0.008  0.010
    5  0.014  0.000  0.043  0.057
    6  0.000  0.001  0.129  0.130
    7  0.014  0.000  0.043  0.058
    8  0.000  0.001  0.127  0.129
    9  0.017  0.000  0.047  0.065
   10  0.000  0.001  0.136  0.137
   11  0.017  0.000  0.046  0.064
   12  0.000  0.001  0.138  0.138
   13  0.000  0.004  0.037  0.041
   14  0.002  0.001  0.018  0.021
   15  0.000  0.004  0.035  0.039
   16  0.002  0.001  0.018  0.020
   17  0.000  0.000  0.000  0.000
   18  0.000  0.000  0.000  0.000
tot    0.068  0.023  0.878  0.970
 
band    15 # energy   -5.14012977 # occ.  2.00000000
 
ion      s      p      d    tot
    1  0.002  0.000  0.005  0.007
    2  0.000  0.002  0.022  0.024
    3  0.003  0.003  0.019  0.025
    4  0.000  0.002  0.022  0.024
    5  0.007  0.001  0.108  0.116
    6  0.001  0.001  0.105  0.106
    7  0.007  0.001  0.108  0.116
    8  0.015  0.000  0.015  0.030
    9  0.000  0.002  0.122  0.123
   10  0.027  0.001  0.016  0.043
   11  0.000  0.002  0.122  0.123
   12  0.012  0.001  0.084  0.097
   13  0.000  0.001  0.008  0.008
   14  0.000  0.006  0.037  0.043
   15  0.006  0.003  0.024  0.033
   16  0.000  0.006  0.038  0.043
   17  0.001  0.001  0.000  0.002
   18  0.000  0.004  0.000  0.004
tot    0.080  0.035  0.854  0.970
 
band    16 # energy   -4.99007449 # occ.  2.00000000
 
ion      s      p      d    tot
    1  0.001  0.001  0.006  0.007
    2  0.000  0.002  0.017  0.020
    3  0.001  0.002  0.010  0.013
    4  0.000  0.002  0.017  0.020
    5  0.000  0.000  0.074  0.074
    6  0.015  0.000  0.040  0.055
    7  0.000  0.000  0.074  0.074
    8  0.022  0.000  0.013  0.035
    9  0.000  0.008  0.002  0.010
   10  0.001  0.004  0.004  0.009
   11  0.000  0.008  0.002  0.010
   12  0.000  0.006  0.004  0.011
   13  0.027  0.000  0.054  0.081
   14  0.000  0.000  0.221  0.221
   15  0.025  0.000  0.061  0.086
   16  0.000  0.000  0.221  0.221
   17  0.000  0.000  0.001  0.001
   18  0.000  0.023  0.000  0.023
tot    0.091  0.058  0.824  0.973
 
band    17 # energy   -4.84513933 # occ.  2.00000000
 
ion      s      p      d    tot
    1  0.000  0.001  0.011  0.012
    2  0.001  0.001  0.006  0.007
    3  0.000  0.001  0.011  0.012
    4  0.001  0.001  0.006  0.007
    5  0.010  0.001  0.019  0.029
    6  0.000  0.000  0.054  0.054
    7  0.010  0.001  0.019  0.029
    8  0.000  0.000  0.055  0.055
    9  0.001  0.005  0.008  0.015
   10  0.000  0.008  0.014  0.022
   11  0.001  0.005  0.008  0.015
   12  0.000  0.009  0.017  0.026
   13  0.000  0.000  0.208  0.208
   14  0.036  0.002  0.098  0.136
   15  0.000  0.000  0.207  0.207
   16  0.036  0.002  0.098  0.136
   17  0.000  0.000  0.000  0.000
   18  0.000  0.007  0.000  0.007
tot    0.094  0.044  0.841  0.978
 
band    18 # energy   -4.81406514 # occ.  2.00000000
 
ion      s      p      d    tot
    1  0.008  0.001  0.026  0.035
    2  0.000  0.001  0.050  0.051
    3  0.008  0.000  0.015  0.024
    4  0.000  0.001  0.050  0.051
    5  0.002  0.001  0.032  0.035
    6  0.002  0.000  0.010  0.011
    7  0.002  0.001  0.032  0.035
    8  0.002  0.001  0.039  0.041
    9  0.000  0.004  0.011  0.015
   10  0.000  0.007  0.020  0.027
   11  0.000  0.004  0.011  0.015
   12  0.000  0.001  0.003  0.005
   13  0.006  0.000  0.091  0.097
   14  0.009  0.002  0.200  0.212
   15  0.010  0.000  0.090  0.100
   16  0.009  0.002  0.200  0.212
   17  0.001  0.003  0.000  0.004
   18  0.000  0.003  0.000  0.003
tot    0.060  0.034  0.881  0.975
 
band    19 # energy   -4.77068818 # occ.  2.00000000
 
ion      s      p      d    tot
    1  0.028  0.004  0.009  0.041
    2  0.006  0.001  0.056  0.063
    3  0.000  0.001  0.066  0.067
    4  0.006  0.001  0.055  0.063
    5  0.000  0.003  0.084  0.088
    6  0.000  0.003  0.096  0.099
    7  0.000  0.003  0.085  0.088
    8  0.000  0.004  0.028  0.032
    9  0.001  0.000  0.109  0.111
   10  0.006  0.003  0.040  0.049
   11  0.001  0.000  0.109  0.111
   12  0.000  0.000  0.125  0.125
   13  0.001  0.002  0.022  0.026
   14  0.000  0.000  0.012  0.013
   15  0.000  0.000  0.004  0.004
   16  0.000  0.000  0.012  0.013
   17  0.000  0.000  0.000  0.000
   18  0.000  0.000  0.000  0.000
tot    0.051  0.028  0.914  0.993
 
band    20 # energy   -4.76451122 # occ.  2.00000000
 
ion      s      p      d    tot
    1  0.000  0.001  0.067  0.068
    2  0.020  0.003  0.024  0.047
    3  0.000  0.001  0.066  0.067
    4  0.018  0.003  0.027  0.048
    5  0.000  0.003  0.048  0.052
    6  0.000  0.003  0.090  0.093
    7  0.000  0.003  0.044  0.048
    8  0.000  0.003  0.092  0.095
    9  0.005  0.001  0.065  0.071
   10  0.000  0.000  0.117  0.117
   11  0.004  0.001  0.070  0.076
   12  0.000  0.000  0.125  0.125
   13  0.000  0.000  0.009  0.009
   14  0.000  0.001  0.031  0.032
   15  0.000  0.000  0.009  0.009
   16  0.000  0.001  0.029  0.030
   17  0.000  0.000  0.000  0.000
   18  0.000  0.003  0.000  0.003
tot    0.048  0.028  0.914  0.990
 
band    21 # energy   -4.76413990 # occ.  2.00000000
 
ion      s      p      d    tot
    1  0.001  0.000  0.035  0.036
    2  0.003  0.001  0.032  0.035
    3  0.020  0.004  0.010  0.034
    4  0.004  0.001  0.029  0.035
    5  0.000  0.002  0.092  0.095
    6  0.001  0.004  0.040  0.045
    7  0.000  0.002  0.096  0.098
    8  0.000  0.002  0.103  0.105
    9  0.001  0.000  0.134  0.135
   10  0.000  0.000  0.137  0.137
   11  0.001  0.000  0.129  0.131
   12  0.006  0.002  0.048  0.055
   13  0.000  0.000  0.003  0.003
   14  0.001  0.001  0.007  0.009
   15  0.004  0.003  0.028  0.035
   16  0.001  0.001  0.009  0.011
   17  0.000  0.000  0.000  0.000
   18  0.000  0.000  0.000  0.000
tot    0.043  0.024  0.931  0.998
 
band    22 # energy   -4.73372117 # occ.  2.00000000
 
ion      s      p      d    tot
    1  0.011  0.000  0.103  0.114
    2  0.010  0.000  0.114  0.124
    3  0.009  0.000  0.119  0.128
    4  0.010  0.000  0.114  0.124
    5  0.000  0.004  0.040  0.045
    6  0.000  0.005  0.033  0.038
    7  0.000  0.004  0.040  0.045
    8  0.000  0.004  0.050  0.054
    9  0.001  0.001  0.041  0.043
   10  0.001  0.000  0.038  0.040
   11  0.001  0.001  0.041  0.043
   12  0.001  0.000  0.037  0.039
   13  0.000  0.002  0.025  0.028
   14  0.000  0.002  0.044  0.046
   15  0.000  0.002  0.027  0.030
   16  0.000  0.002  0.044  0.046
   17  0.000  0.000  0.000  0.000
   18  0.000  0.001  0.000  0.001
tot    0.045  0.028  0.912  0.985
 
band    23 # energy   -4.72498931 # occ.  2.00000000
 
ion      s      p      d    tot
    1  0.000  0.000  0.167  0.167
    2  0.020  0.000  0.065  0.085
    3  0.000  0.000  0.165  0.165
    4  0.020  0.000  0.065  0.085
    5  0.000  0.002  0.054  0.057
    6  0.000  0.006  0.026  0.032
    7  0.000  0.002  0.054  0.057
    8  0.000  0.006  0.026  0.033
    9  0.003  0.000  0.040  0.043
   10  0.000  0.000  0.036  0.036
   11  0.003  0.000  0.040  0.043
   12  0.000  0.000  0.040  0.040
   13  0.000  0.002  0.036  0.038
   14  0.000  0.001  0.032  0.033
   15  0.000  0.003  0.038  0.040
   16  0.000  0.001  0.032  0.033
   17  0.000  0.000  0.000  0.000
   18  0.000  0.001  0.000  0.001
tot    0.046  0.026  0.917  0.989
 
band    24 # energy   -4.68191313 # occ.  2.00000000
 
ion      s      p      d    tot
    1  0.012  0.000  0.088  0.100
    2  0.000  0.000  0.158  0.159
    3  0.020  0.000  0.044  0.065
    4  0.000  0.000  0.158  0.159
    5  0.000  0.006  0.029  0.035
    6  0.001  0.002  0.054  0.057
    7  0.000  0.006  0.029  0.035
    8  0.000  0.003  0.041  0.044
    9  0.000  0.001  0.032  0.033
   10  0.003  0.002  0.008  0.013
   11  0.000  0.001  0.032  0.033
   12  0.008  0.001  0.048  0.057
   13  0.001  0.002  0.036  0.040
   14  0.003  0.009  0.049  0.060
   15  0.001  0.002  0.020  0.022
   16  0.003  0.009  0.049  0.060
   17  0.002  0.004  0.000  0.006
   18  0.000  0.004  0.000  0.004
tot    0.055  0.050  0.878  0.983
 
band    25 # energy   -4.42523780 # occ.  2.00000000
 
ion      s      p      d    tot
    1  0.000  0.003  0.084  0.088
    2  0.000  0.003  0.081  0.084
    3  0.000  0.003  0.073  0.076
    4  0.000  0.003  0.081  0.084
    5  0.000  0.002  0.059  0.062
    6  0.001  0.003  0.050  0.054
    7  0.000  0.002  0.059  0.062
    8  0.000  0.002  0.056  0.058
    9  0.000  0.008  0.022  0.030
   10  0.000  0.007  0.020  0.027
   11  0.000  0.008  0.022  0.030
   12  0.000  0.006  0.018  0.024
   13  0.000  0.002  0.049  0.050
   14  0.001  0.001  0.099  0.101
   15  0.001  0.002  0.044  0.047
   16  0.001  0.001  0.099  0.101
   17  0.000  0.000  0.000  0.000
   18  0.000  0.005  0.000  0.005
tot    0.005  0.061  0.916  0.982
 
band    26 # energy   -4.40153105 # occ.  2.00000000
 
ion      s      p      d    tot
    1  0.000  0.003  0.098  0.101
    2  0.000  0.002  0.056  0.059
    3  0.000  0.003  0.096  0.100
    4  0.000  0.002  0.056  0.059
    5  0.001  0.004  0.044  0.049
    6  0.000  0.002  0.060  0.062
    7  0.001  0.004  0.044  0.049
    8  0.000  0.002  0.062  0.064
    9  0.000  0.006  0.014  0.021
   10  0.000  0.007  0.028  0.035
   11  0.000  0.006  0.014  0.021
   12  0.000  0.008  0.038  0.046
   13  0.000  0.002  0.063  0.065
   14  0.001  0.001  0.088  0.090
   15  0.000  0.002  0.064  0.066
   16  0.001  0.001  0.088  0.090
   17  0.000  0.000  0.000  0.000
   18  0.000  0.005  0.000  0.005
tot    0.003  0.064  0.916  0.983
 
band    27 # energy   -4.33455987 # occ.  2.00000000
 
ion      s      p      d    tot
    1  0.000  0.002  0.042  0.043
    2  0.000  0.004  0.100  0.104
    3  0.000  0.003  0.068  0.071
    4  0.000  0.004  0.100  0.104
    5  0.000  0.005  0.048  0.053
    6  0.001  0.006  0.032  0.038
    7  0.000  0.005  0.048  0.053
    8  0.001  0.007  0.030  0.038
    9  0.000  0.006  0.063  0.068
   10  0.000  0.003  0.009  0.012
   11  0.000  0.006  0.063  0.068
   12  0.001  0.007  0.053  0.062
   13  0.001  0.004  0.065  0.069
   14  0.000  0.012  0.063  0.076
   15  0.001  0.006  0.026  0.033
   16  0.000  0.012  0.063  0.076
   17  0.002  0.004  0.000  0.006
   18  0.000  0.003  0.000  0.003
tot    0.008  0.097  0.873  0.978
 
band    28 # energy   -3.96194563 # occ.  2.00000000
 
ion      s      p      d    tot
    1  0.000  0.000  0.032  0.032
    2  0.000  0.001  0.047  0.048
    3  0.000  0.001  0.061  0.061
    4  0.000  0.001  0.047  0.048
    5  0.001  0.005  0.012  0.017
    6  0.000  0.006  0.006  0.012
    7  0.001  0.005  0.012  0.017
    8  0.000  0.006  0.002  0.009
    9  0.000  0.000  0.054  0.055
   10  0.000  0.009  0.061  0.071
   11  0.000  0.000  0.054  0.055
   12  0.000  0.004  0.061  0.065
   13  0.000  0.000  0.023  0.023
   14  0.002  0.001  0.198  0.201
   15  0.000  0.000  0.043  0.043
   16  0.002  0.001  0.198  0.200
   17  0.000  0.000  0.001  0.001
   18  0.000  0.010  0.000  0.010
tot    0.006  0.049  0.911  0.967
 
band    29 # energy   -3.91764825 # occ.  2.00000000
 
ion      s      p      d    tot
    1  0.000  0.001  0.072  0.073
    2  0.000  0.000  0.026  0.026
    3  0.000  0.001  0.070  0.071
    4  0.000  0.000  0.026  0.026
    5  0.001  0.004  0.009  0.014
    6  0.000  0.004  0.011  0.016
    7  0.001  0.004  0.009  0.014
    8  0.000  0.004  0.013  0.018
    9  0.000  0.006  0.043  0.048
   10  0.000  0.001  0.052  0.053
   11  0.000  0.006  0.043  0.048
   12  0.000  0.001  0.045  0.046
   13  0.000  0.000  0.076  0.076
   14  0.001  0.000  0.175  0.176
   15  0.000  0.000  0.081  0.081
   16  0.001  0.000  0.175  0.176
   17  0.000  0.000  0.000  0.001
   18  0.000  0.008  0.000  0.008
tot    0.002  0.040  0.927  0.970
 
band    30 # energy   -3.86518072 # occ.  2.00000000
 
ion      s      p      d    tot
    1  0.000  0.001  0.090  0.090
    2  0.000  0.000  0.086  0.087
    3  0.000  0.000  0.001  0.001
    4  0.000  0.000  0.086  0.087
    5  0.000  0.008  0.016  0.023
    6  0.000  0.007  0.014  0.021
    7  0.000  0.008  0.016  0.023
    8  0.000  0.007  0.009  0.017
    9  0.000  0.006  0.054  0.060
   10  0.000  0.009  0.055  0.065
   11  0.000  0.006  0.054  0.060
   12  0.000  0.001  0.005  0.006
   13  0.000  0.000  0.038  0.039
   14  0.001  0.002  0.160  0.163
   15  0.000  0.001  0.054  0.055
   16  0.001  0.002  0.160  0.163
   17  0.001  0.001  0.000  0.002
   18  0.000  0.002  0.000  0.002
tot    0.005  0.062  0.899  0.965
 
band    31 # energy   -3.75040775 # occ.  2.00000000
 
ion      s      p      d    tot
    1  0.000  0.000  0.005  0.005
    2  0.000  0.000  0.073  0.074
    3  0.000  0.001  0.090  0.091
    4  0.000  0.000  0.073  0.073
    5  0.000  0.003  0.030  0.033
    6  0.000  0.004  0.027  0.032
    7  0.000  0.003  0.030  0.033
    8  0.000  0.009  0.022  0.031
    9  0.000  0.005  0.028  0.033
   10  0.000  0.000  0.092  0.093
   11  0.000  0.005  0.028  0.033
   12  0.002  0.010  0.194  0.206
   13  0.000  0.005  0.031  0.036
   14  0.001  0.010  0.072  0.083
   15  0.000  0.002  0.031  0.033
   16  0.001  0.010  0.072  0.083
   17  0.002  0.002  0.000  0.004
   18  0.000  0.001  0.000  0.001
tot    0.008  0.073  0.899  0.980
 
band    32 # energy   -3.72837967 # occ.  2.00000000
 
ion      s      p      d    tot
    1  0.000  0.000  0.068  0.068
    2  0.000  0.000  0.024  0.025
    3  0.000  0.000  0.084  0.085
    4  0.000  0.000  0.024  0.025
    5  0.000  0.006  0.014  0.020
    6  0.000  0.008  0.036  0.044
    7  0.000  0.006  0.014  0.020
    8  0.000  0.007  0.018  0.025
    9  0.000  0.002  0.062  0.064
   10  0.000  0.006  0.060  0.066
   11  0.000  0.002  0.061  0.064
   12  0.000  0.009  0.020  0.029
   13  0.000  0.000  0.004  0.004
   14  0.003  0.000  0.190  0.193
   15  0.000  0.000  0.007  0.007
   16  0.003  0.000  0.190  0.193
   17  0.000  0.002  0.002  0.004
   18  0.000  0.036  0.000  0.036
tot    0.007  0.084  0.878  0.969
 
band    33 # energy   -3.65114269 # occ.  2.00000000
 
ion      s      p      d    tot
    1  0.000  0.000  0.041  0.041
    2  0.000  0.000  0.069  0.069
    3  0.000  0.001  0.040  0.041
    4  0.000  0.000  0.069  0.069
    5  0.000  0.001  0.111  0.112
    6  0.000  0.000  0.056  0.056
    7  0.000  0.001  0.111  0.112
    8  0.000  0.001  0.124  0.125
    9  0.000  0.001  0.064  0.065
   10  0.000  0.000  0.040  0.040
   11  0.000  0.001  0.064  0.065
   12  0.000  0.002  0.114  0.116
   13  0.000  0.000  0.002  0.002
   14  0.000  0.000  0.025  0.025
   15  0.000  0.001  0.024  0.025
   16  0.000  0.000  0.024  0.024
   17  0.000  0.000  0.000  0.000
   18  0.000  0.000  0.000  0.000
tot    0.001  0.009  0.977  0.987
 
band    34 # energy   -3.64905366 # occ.  2.00000000
 
ion      s      p      d    tot
    1  0.000  0.000  0.037  0.038
    2  0.000  0.000  0.026  0.027
    3  0.000  0.000  0.039  0.039
    4  0.000  0.000  0.026  0.026
    5  0.000  0.002  0.052  0.054
    6  0.000  0.002  0.050  0.052
    7  0.000  0.002  0.053  0.055
    8  0.000  0.003  0.093  0.096
    9  0.001  0.000  0.165  0.166
   10  0.000  0.000  0.002  0.002
   11  0.001  0.000  0.165  0.166
   12  0.001  0.000  0.072  0.074
   13  0.000  0.004  0.031  0.034
   14  0.000  0.002  0.066  0.068
   15  0.000  0.002  0.017  0.019
   16  0.000  0.002  0.065  0.068
   17  0.000  0.001  0.000  0.001
   18  0.000  0.001  0.000  0.001
tot    0.005  0.022  0.959  0.986
 
band    35 # energy   -3.64197121 # occ.  2.00000000
 
ion      s      p      d    tot
    1  0.000  0.000  0.031  0.031
    2  0.000  0.000  0.022  0.022
    3  0.000  0.000  0.017  0.017
    4  0.000  0.000  0.022  0.023
    5  0.000  0.000  0.056  0.056
    6  0.000  0.000  0.010  0.010
    7  0.000  0.000  0.055  0.055
    8  0.000  0.000  0.052  0.052
    9  0.000  0.001  0.026  0.027
   10  0.000  0.000  0.035  0.035
   11  0.000  0.001  0.026  0.027
   12  0.000  0.000  0.017  0.017
   13  0.000  0.000  0.113  0.113
   14  0.000  0.000  0.215  0.215
   15  0.000  0.000  0.072  0.072
   16  0.000  0.000  0.216  0.216
   17  0.000  0.000  0.000  0.000
   18  0.000  0.002  0.000  0.002
tot    0.001  0.005  0.984  0.990
 
band    36 # energy   -3.60073170 # occ.  2.00000000
 
ion      s      p      d    tot
    1  0.000  0.000  0.010  0.010
    2  0.000  0.000  0.019  0.019
    3  0.000  0.000  0.019  0.019
    4  0.000  0.000  0.019  0.019
    5  0.000  0.001  0.080  0.081
    6  0.000  0.000  0.051  0.052
    7  0.000  0.001  0.079  0.080
    8  0.000  0.000  0.027  0.028
    9  0.000  0.001  0.074  0.075
   10  0.000  0.002  0.046  0.048
   11  0.000  0.001  0.074  0.075
   12  0.000  0.002  0.086  0.088
   13  0.000  0.000  0.025  0.025
   14  0.001  0.000  0.140  0.141
   15  0.000  0.000  0.076  0.076
   16  0.001  0.000  0.140  0.141
   17  0.000  0.001  0.001  0.001
   18  0.000  0.008  0.000  0.008
tot    0.003  0.017  0.966  0.987
 
band    37 # energy   -3.59193896 # occ.  2.00000000
 
ion      s      p      d    tot
    1  0.000  0.002  0.066  0.069
    2  0.000  0.001  0.039  0.041
    3  0.000  0.002  0.062  0.064
    4  0.000  0.001  0.039  0.041
    5  0.001  0.000  0.159  0.160
    6  0.001  0.000  0.156  0.157
    7  0.001  0.000  0.160  0.161
    8  0.001  0.000  0.061  0.062
    9  0.000  0.003  0.026  0.029
   10  0.000  0.003  0.080  0.083
   11  0.000  0.003  0.026  0.029
   12  0.001  0.005  0.021  0.027
   13  0.000  0.001  0.022  0.024
   14  0.000  0.002  0.010  0.012
   15  0.000  0.000  0.020  0.021
   16  0.000  0.002  0.009  0.011
   17  0.000  0.001  0.000  0.001
   18  0.000  0.001  0.000  0.001
tot    0.007  0.028  0.957  0.992
 
band    38 # energy   -3.55277636 # occ.  2.00000000
 
ion      s      p      d    tot
    1  0.000  0.000  0.020  0.020
    2  0.000  0.001  0.026  0.027
    3  0.000  0.000  0.014  0.014
    4  0.000  0.001  0.026  0.027
    5  0.000  0.001  0.054  0.054
    6  0.000  0.000  0.158  0.159
    7  0.000  0.001  0.054  0.054
    8  0.000  0.000  0.161  0.162
    9  0.000  0.001  0.008  0.009
   10  0.000  0.001  0.070  0.071
   11  0.000  0.001  0.008  0.009
   12  0.000  0.001  0.065  0.065
   13  0.000  0.000  0.110  0.111
   14  0.000  0.000  0.051  0.052
   15  0.000  0.000  0.104  0.105
   16  0.000  0.000  0.051  0.052
   17  0.000  0.000  0.000  0.000
   18  0.000  0.001  0.000  0.001
tot    0.003  0.009  0.979  0.991
 
band    39 # energy   -3.51329399 # occ.  2.00000000
 
ion      s      p      d    tot
    1  0.000  0.000  0.014  0.014
    2  0.000  0.000  0.013  0.013
    3  0.000  0.000  0.006  0.006
    4  0.000  0.000  0.013  0.013
    5  0.000  0.000  0.179  0.179
    6  0.000  0.000  0.133  0.133
    7  0.000  0.000  0.179  0.179
    8  0.000  0.000  0.145  0.145
    9  0.000  0.000  0.050  0.050
   10  0.000  0.000  0.077  0.077
   11  0.000  0.000  0.050  0.050
   12  0.000  0.000  0.000  0.000
   13  0.000  0.000  0.022  0.023
   14  0.000  0.000  0.044  0.044
   15  0.000  0.000  0.020  0.020
   16  0.000  0.000  0.044  0.044
   17  0.000  0.000  0.000  0.000
   18  0.000  0.000  0.000  0.000
tot    0.000  0.002  0.990  0.992
 
band    40 # energy   -3.49129754 # occ.  2.00000000
 
ion      s      p      d    tot
    1  0.000  0.000  0.008  0.008
    2  0.000  0.000  0.047  0.048
    3  0.000  0.000  0.006  0.006
    4  0.000  0.000  0.047  0.048
    5  0.000  0.001  0.115  0.117
    6  0.000  0.001  0.089  0.090
    7  0.000  0.002  0.116  0.117
    8  0.000  0.002  0.085  0.087
    9  0.001  0.001  0.055  0.057
   10  0.000  0.000  0.030  0.031
   11  0.001  0.001  0.055  0.057
   12  0.000  0.001  0.052  0.052
   13  0.000  0.001  0.089  0.089
   14  0.001  0.000  0.055  0.056
   15  0.000  0.000  0.069  0.070
   16  0.001  0.000  0.054  0.055
   17  0.000  0.000  0.000  0.000
   18  0.000  0.000  0.000  0.001
tot    0.005  0.013  0.973  0.990
 
band    41 # energy   -3.48880325 # occ.  2.00000000
 
ion      s      p      d    tot
    1  0.000  0.000  0.022  0.022
    2  0.000  0.000  0.028  0.029
    3  0.000  0.000  0.004  0.004
    4  0.000  0.000  0.028  0.029
    5  0.000  0.001  0.124  0.125
    6  0.000  0.002  0.042  0.044
    7  0.000  0.001  0.124  0.125
    8  0.000  0.003  0.090  0.093
    9  0.000  0.001  0.078  0.080
   10  0.000  0.004  0.050  0.054