<?xml version="1.0" encoding="ISO-8859-1"?>
<modeling>
 <generator>
  <i name="program" type="string">vasp </i>
  <i name="version" type="string">5.4.4.18Apr17-6-g9f103f2a35  </i>
  <i name="subversion" type="string">(build Aug 07 2018 15:16:41) complex            parallel </i>
  <i name="platform" type="string">LinuxIFC </i>
  <i name="date" type="string">2019 10 18 </i>
  <i name="time" type="string">01:18:29 </i>
 </generator>
 <incar>
  <i type="string" name="PREC">normal</i>
  <i type="int" name="IBRION">     2</i>
  <i name="EDIFFG">     -0.03000000</i>
  <i type="int" name="NSW">     0</i>
  <i type="int" name="ISIF">     0</i>
  <i type="int" name="ISYM">     0</i>
  <i name="ENCUT">    350.00000000</i>
  <v name="RWIGS">      1.50000000      0.80000000      0.80000000</v>
  <i type="string" name="LREAL"> Auto</i>
  <i type="logical" name="LWAVE"> F  </i>
  <i type="logical" name="LCHARG"> F  </i>
  <i type="int" name="LORBIT">     0</i>
  <v type="int" name="KPOINT_BSE">    -1     0     0     0</v>
  <i type="string" name="GGA"> RP</i>
 </incar>
 <structure name="primitive_cell" >
  <crystal>
   <varray name="basis" >
    <v>       5.19996363       0.00000000       0.00000000 </v>
    <v>       2.59998182       4.50330060       0.00000000 </v>
    <v>       0.00000000       0.00000000      26.36862879 </v>
   </varray>
   <i name="volume">    617.47416323 </i>
   <varray name="rec_basis" >
    <v>       0.19230904      -0.11102967       0.00000000 </v>
    <v>       0.00000000       0.22205935       0.00000000 </v>
    <v>       0.00000000       0.00000000       0.03792385 </v>
   </varray>
  </crystal>
  <varray name="positions" >
   <v>       0.00000000       0.00000000       0.37923853 </v>
   <v>       0.16666667       0.16666667       0.45974618 </v>
   <v>       0.00000000      -0.50000000       0.37923853 </v>
   <v>      -0.50000000      -0.50000000       0.37923853 </v>
   <v>      -0.50000000       0.00000000       0.37923853 </v>
   <v>       0.16666667      -0.33333333       0.45974618 </v>
   <v>      -0.33333333       0.16666667       0.45974618 </v>
   <v>      -0.33333333      -0.33333333       0.45974618 </v>
   <v>      -0.16749832      -0.16558349      -0.46084180 </v>
   <v>      -0.16751121       0.33307098      -0.46083969 </v>
   <v>       0.33691317      -0.16846706      -0.45887845 </v>
   <v>       0.33509512       0.33243379      -0.46155493 </v>
   <v>       0.00202217      -0.00101936      -0.38183573 </v>
   <v>      -0.01133924      -0.49433409      -0.38274898 </v>
   <v>       0.49524931      -0.49825750      -0.37799871 </v>
   <v>       0.49530183       0.00298692      -0.37799339 </v>
   <v>      -0.49556735       0.24779035      -0.32011182 </v>
   <v>      -0.49637369       0.24828784      -0.27538510 </v>
  </varray>
 </structure>
 <varray name="primitive_index" >
  <v type="int" >        1 </v>
  <v type="int" >        5 </v>
  <v type="int" >        3 </v>
  <v type="int" >        4 </v>
  <v type="int" >        2 </v>
  <v type="int" >        7 </v>
  <v type="int" >        6 </v>
  <v type="int" >        8 </v>
  <v type="int" >       11 </v>
  <v type="int" >        9 </v>
  <v type="int" >       12 </v>
  <v type="int" >       10 </v>
  <v type="int" >       13 </v>
  <v type="int" >       15 </v>
  <v type="int" >       16 </v>
  <v type="int" >       14 </v>
  <v type="int" >       17 </v>
  <v type="int" >       18 </v>
 </varray>
 <kpoints>
  <generation param="Monkhorst-Pack">
   <v type="int" name="divisions">       5        5        1 </v>
   <v name="usershift">      0.00000000       0.00000000       0.00000000 </v>
   <v name="genvec1">      0.20000000       0.00000000       0.00000000 </v>
   <v name="genvec2">      0.00000000       0.20000000       0.00000000 </v>
   <v name="genvec3">      0.00000000       0.00000000       1.00000000 </v>
   <v name="shift">      0.00000000       0.00000000       0.00000000 </v>
  </generation>
  <varray name="kpointlist" >
   <v>       0.00000000       0.00000000       0.00000000 </v>
   <v>       0.20000000      -0.00000000       0.00000000 </v>
   <v>       0.40000000      -0.00000000       0.00000000 </v>
   <v>       0.00000000       0.20000000       0.00000000 </v>
   <v>       0.20000000       0.20000000       0.00000000 </v>
   <v>       0.40000000       0.20000000       0.00000000 </v>
   <v>      -0.40000000       0.20000000       0.00000000 </v>
   <v>      -0.20000000       0.20000000       0.00000000 </v>
   <v>       0.00000000       0.40000000       0.00000000 </v>
   <v>       0.20000000       0.40000000       0.00000000 </v>
   <v>       0.40000000       0.40000000       0.00000000 </v>
   <v>      -0.40000000       0.40000000       0.00000000 </v>
   <v>      -0.20000000       0.40000000       0.00000000 </v>
  </varray>
  <varray name="weights" >
   <v>       0.04000000 </v>
   <v>       0.08000000 </v>
   <v>       0.08000000 </v>
   <v>       0.08000000 </v>
   <v>       0.08000000 </v>
   <v>       0.08000000 </v>
   <v>       0.08000000 </v>
   <v>       0.08000000 </v>
   <v>       0.08000000 </v>
   <v>       0.08000000 </v>
   <v>       0.08000000 </v>
   <v>       0.08000000 </v>
   <v>       0.08000000 </v>
  </varray>
 </kpoints>
 <parameters>
  <separator name="general" >
   <i type="string" name="SYSTEM">unknown system</i>
   <i type="logical" name="LCOMPAT"> F  </i>
  </separator>
  <separator name="electronic" >
   <i type="string" name="PREC">normal</i>
   <i name="ENMAX">    350.00000000</i>
   <i name="ENAUG">    644.87300000</i>
   <i name="EDIFF">      0.00010000</i>
   <i type="int" name="IALGO">    38</i>
   <i type="int" name="IWAVPR">    10</i>
   <i type="int" name="NBANDS">   112</i>
   <i name="NELECT">    186.00000000</i>
   <i type="int" name="TURBO">     0</i>
   <i type="int" name="IRESTART">     0</i>
   <i type="int" name="NREBOOT">     0</i>
   <i type="int" name="NMIN">     0</i>
   <i name="EREF">      0.00000000</i>
   <separator name="electronic smearing" >
    <i type="int" name="ISMEAR">     1</i>
    <i name="SIGMA">      0.20000000</i>
    <i name="KSPACING">      0.50000000</i>
    <i type="logical" name="KGAMMA"> T  </i>
   </separator>
   <separator name="electronic projectors" >
    <i type="logical" name="LREAL"> T  </i>
    <v name="ROPT">     -0.00050000     -0.00050000     -0.00050000</v>
    <i type="int" name="LMAXPAW">  -100</i>
    <i type="int" name="LMAXMIX">     2</i>
    <i type="logical" name="NLSPLINE"> F  </i>
   </separator>
   <separator name="electronic startup" >
    <i type="int" name="ISTART">     0</i>
    <i type="int" name="ICHARG">     2</i>
    <i type="int" name="INIWAV">     1</i>
   </separator>
   <separator name="electronic spin" >
    <i type="int" name="ISPIN">     1</i>
    <i type="logical" name="LNONCOLLINEAR"> F  </i>
    <v name="MAGMOM">      1.00000000      1.00000000      1.00000000      1.00000000      1.00000000      1.00000000      1.00000000      1.00000000      1.00000000      1.00000000      1.00000000      1.00000000      1.00000000      1.00000000      1.00000000      1.00000000      1.00000000      1.00000000</v>
    <i name="NUPDOWN">     -1.00000000</i>
    <i type="logical" name="LSORBIT"> F  </i>
    <v name="SAXIS">      0.00000000      0.00000000      1.00000000</v>
    <i type="logical" name="LSPIRAL"> F  </i>
    <v name="QSPIRAL">      0.00000000      0.00000000      0.00000000</v>
    <i type="logical" name="LZEROZ"> F  </i>
   </separator>
   <separator name="electronic exchange-correlation" >
    <i type="logical" name="LASPH"> F  </i>
    <i type="logical" name="LMETAGGA"> F  </i>
   </separator>
   <separator name="electronic convergence" >
    <i type="int" name="NELM">    60</i>
    <i type="int" name="NELMDL">    -5</i>
    <i type="int" name="NELMIN">     2</i>
    <i name="ENINI">    350.00000000</i>
    <separator name="electronic convergence detail" >
     <i type="logical" name="LDIAG"> T  </i>
     <i type="logical" name="LSUBROT"> F  </i>
     <i name="WEIMIN">      0.00000000</i>
     <i name="EBREAK">      0.00000022</i>
     <i name="DEPER">      0.30000000</i>
     <i type="int" name="NRMM">     4</i>
     <i name="TIME">      0.40000000</i>
    </separator>
   </separator>
   <separator name="electronic mixer" >
    <i name="AMIX">      0.40000000</i>
    <i name="BMIX">      1.00000000</i>
    <i name="AMIN">      0.10000000</i>
    <i name="AMIX_MAG">      1.60000000</i>
    <i name="BMIX_MAG">      1.00000000</i>
    <separator name="electronic mixer details" >
     <i type="int" name="IMIX">     4</i>
     <i type="logical" name="MIXFIRST"> F  </i>
     <i type="int" name="MAXMIX">   -45</i>
     <i name="WC">    100.00000000</i>
     <i type="int" name="INIMIX">     1</i>
     <i type="int" name="MIXPRE">     1</i>
     <i type="int" name="MREMOVE">     5</i>
    </separator>
   </separator>
   <separator name="electronic dipolcorrection" >
    <i type="logical" name="LDIPOL"> F  </i>
    <i type="logical" name="LMONO"> F  </i>
    <i type="int" name="IDIPOL">     0</i>
    <i name="EPSILON">      1.00000000</i>
    <v name="DIPOL">   -100.00000000   -100.00000000   -100.00000000</v>
    <i name="EFIELD">      0.00000000</i>
   </separator>
  </separator>
  <separator name="grids" >
   <i type="int" name="NGX">    24</i>
   <i type="int" name="NGY">    24</i>
   <i type="int" name="NGZ">   126</i>
   <i type="int" name="NGXF">    48</i>
   <i type="int" name="NGYF">    48</i>
   <i type="int" name="NGZF">   252</i>
   <i type="logical" name="ADDGRID"> F  </i>
  </separator>
  <separator name="ionic" >
   <i type="int" name="NSW">     0</i>
   <i type="int" name="IBRION">    -1</i>
   <i type="int" name="MDALGO">     0</i>
   <i type="int" name="ISIF">     0</i>
   <i name="PSTRESS">      0.00000000</i>
   <i name="EDIFFG">     -0.03000000</i>
   <i type="int" name="NFREE">     1</i>
   <i name="POTIM">      0.50000000</i>
   <i name="SMASS">     -3.00000000</i>
   <i name="SCALEE">      1.00000000</i>
  </separator>
  <separator name="ionic md" >
   <i name="TEBEG">      0.00010000</i>
   <i name="TEEND">      0.00010000</i>
   <i type="int" name="NBLOCK">     1</i>
   <i type="int" name="KBLOCK">     1</i>
   <i type="int" name="NPACO">   256</i>
   <i name="APACO">     16.00000000</i>
  </separator>
  <separator name="symmetry" >
   <i type="int" name="ISYM">     0</i>
   <i name="SYMPREC">      0.00001000</i>
  </separator>
  <separator name="dos" >
   <i type="int" name="LORBIT">     0</i>
   <v name="RWIGS">      1.50000000      0.80000000      0.80000000</v>
   <i type="int" name="NEDOS">   301</i>
   <i name="EMIN">     10.00000000</i>
   <i name="EMAX">    -10.00000000</i>
   <i name="EFERMI">      0.00000000</i>
  </separator>
  <separator name="writing" >
   <i type="int" name="NWRITE">     2</i>
   <i type="logical" name="LWAVE"> F  </i>
   <i type="logical" name="LDOWNSAMPLE"> F  </i>
   <i type="logical" name="LCHARG"> F  </i>
   <i type="logical" name="LPARD"> F  </i>
   <i type="logical" name="LVTOT"> F  </i>
   <i type="logical" name="LVHAR"> F  </i>
   <i type="logical" name="LELF"> F  </i>
   <i type="logical" name="LOPTICS"> F  </i>
   <v name="STM">      0.00000000      0.00000000      0.00000000      0.00000000      0.00000000      0.00000000      0.00000000</v>
  </separator>
  <separator name="performance" >
   <i type="int" name="NPAR">     4</i>
   <i type="int" name="NSIM">     4</i>
   <i type="int" name="NBLK">    -1</i>
   <i type="logical" name="LPLANE"> T  </i>
   <i type="logical" name="LSCALAPACK"> T  </i>
   <i type="logical" name="LSCAAWARE"> F  </i>
   <i type="logical" name="LSCALU"> F  </i>
   <i type="logical" name="LASYNC"> F  </i>
   <i type="logical" name="LORBITALREAL"> F  </i>
  </separator>
  <separator name="miscellaneous" >
   <i type="int" name="IDIOT">     3</i>
   <i type="int" name="ISPECIAL">     0</i>
   <i type="logical" name="LMUSIC"> F  </i>
   <v name="POMASS">     63.54600000     12.01100000     16.00000000</v>
   <v name="DARWINR">      0.00000000      0.00000000      0.00000000</v>
   <v name="DARWINV">      1.00000000      1.00000000      1.00000000</v>
   <i type="logical" name="LCORR"> T  </i>
  </separator>
  <i type="logical" name="GGA_COMPAT"> T  </i>
  <i type="logical" name="LBERRY"> F  </i>
  <i type="int" name="ICORELEVEL">     0</i>
  <i type="logical" name="LDAU"> F  </i>
  <i type="int" name="I_CONSTRAINED_M">     0</i>
  <separator name="electronic exchange-correlation" >
   <i type="string" name="GGA">RP</i>
   <i type="int" name="VOSKOWN">     0</i>
   <i type="logical" name="LHFCALC"> F  </i>
   <i type="string" name="PRECFOCK"></i>
   <i type="logical" name="LSYMGRAD"> F  </i>
   <i type="logical" name="LHFONE"> F  </i>
   <i type="logical" name="LRHFCALC"> F  </i>
   <i type="logical" name="LTHOMAS"> F  </i>
   <i type="logical" name="LMODELHF"> F  </i>
   <i name="ENCUT4O">     -1.00000000</i>
   <i type="int" name="EXXOEP">     0</i>
   <i type="int" name="FOURORBIT">     0</i>
   <i name="AEXX">      0.00000000</i>
   <i name="HFALPHA">      0.00000000</i>
   <i name="MCALPHA">      0.00000000</i>
   <i name="ALDAX">      1.00000000</i>
   <i name="AGGAX">      1.00000000</i>
   <i name="ALDAC">      1.00000000</i>
   <i name="AGGAC">      1.00000000</i>
   <i type="int" name="NKREDX">     1</i>
   <i type="int" name="NKREDY">     1</i>
   <i type="int" name="NKREDZ">     1</i>
   <i type="logical" name="SHIFTRED"> F  </i>
   <i type="logical" name="ODDONLY"> F  </i>
   <i type="logical" name="EVENONLY"> F  </i>
   <i type="int" name="LMAXFOCK">     0</i>
   <i type="int" name="NMAXFOCKAE">     0</i>
   <i type="logical" name="LFOCKAEDFT"> F  </i>
   <i name="HFSCREEN">      0.00000000</i>
   <i name="HFSCREENC">      0.00000000</i>
   <i type="int" name="NBANDSGWLOW">     0</i>
  </separator>
  <separator name="vdW DFT" >
   <i type="logical" name="LUSE_VDW"> F  </i>
   <i name="Zab_VDW">     -0.84910000</i>
   <i name="PARAM1">      0.12340000</i>
   <i name="PARAM2">      1.00000000</i>
   <i name="PARAM3">      0.00000000</i>
  </separator>
  <separator name="model GW" >
   <i type="int" name="MODEL_GW">     0</i>
   <i name="MODEL_EPS0">     20.58247211</i>
   <i name="MODEL_ALPHA">      1.00000000</i>
  </separator>
  <separator name="linear response parameters" >
   <i type="logical" name="LEPSILON"> F  </i>
   <i type="logical" name="LRPA"> F  </i>
   <i type="logical" name="LNABLA"> F  </i>
   <i type="logical" name="LVEL"> F  </i>
   <i type="int" name="KINTER">     0</i>
   <i name="CSHIFT">      0.10000000</i>
   <i name="OMEGAMAX">     -1.00000000</i>
   <i name="DEG_THRESHOLD">      0.00200000</i>
   <i name="RTIME">     -0.10000000</i>
   <i name="WPLASMAI">      0.00000000</i>
   <v name="DFIELD">      0.00000000      0.00000000      0.00000000</v>
   <v name="WPLASMA">      0.00000000      0.00000000      0.00000000      0.00000000      0.00000000      0.00000000      0.00000000      0.00000000      0.00000000</v>
  </separator>
  <separator name="orbital magnetization" >
   <i type="logical" name="NUCIND"> F  </i>
   <v name="MAGPOS">      0.00000000      0.00000000      0.00000000</v>
   <i type="logical" name="LNICSALL"> T  </i>
   <i type="logical" name="ORBITALMAG"> F  </i>
   <i type="logical" name="LMAGBLOCH"> F  </i>
   <i type="logical" name="LCHIMAG"> F  </i>
   <i type="logical" name="LGAUGE"> T  </i>
   <i type="int" name="MAGATOM">     0</i>
   <v name="MAGDIPOL">      0.00000000      0.00000000      0.00000000</v>
   <v name="AVECCONST">      0.00000000      0.00000000      0.00000000</v>
  </separator>
  <separator name="response functions" >
   <i type="logical" name="LADDER"> F  </i>
   <i type="logical" name="LRPAFORCE"> F  </i>
   <i type="logical" name="LFXC"> F  </i>
   <i type="logical" name="LHARTREE"> T  </i>
   <i type="int" name="IBSE">     0</i>
   <v type="int" name="KPOINT">    -1     0     0     0</v>
   <i type="logical" name="LTCTE"> F  </i>
   <i type="logical" name="LTETE"> F  </i>
   <i type="logical" name="LTRIPLET"> F  </i>
   <i type="logical" name="LFXCEPS"> F  </i>
   <i type="logical" name="LFXHEG"> F  </i>
   <i type="int" name="NATURALO">     2</i>
   <i type="logical" name="L2ORDER"> F  </i>
   <i type="logical" name="LMP2LT"> F  </i>
   <i type="logical" name="LUSEW"> F  </i>
   <i name="ENCUTGW">     -2.00000000</i>
   <i name="ENCUTGWSOFT">     -2.00000000</i>
   <i name="ENCUTLF">     -1.00000000</i>
   <i type="int" name="LMAXMP2">    -1</i>
   <i name="SCISSOR">      0.00000000</i>
   <i type="int" name="NOMEGA">     0</i>
   <i type="int" name="NOMEGAR">     0</i>
   <i type="int" name="NBANDSGW">    -1</i>
   <i type="int" name="NBANDSO">    -1</i>
   <i type="int" name="NBANDSV">    -1</i>
   <i type="int" name="NELM">     1</i>
   <i type="int" name="NELMHF">     1</i>
   <i type="int" name="DIM">     3</i>
   <i type="int" name="ANTIRES">     0</i>
   <i name="OMEGAMAX">    -30.00000000</i>
   <i name="OMEGAMIN">    -30.00000000</i>
   <i name="OMEGATL">   -200.00000000</i>
   <i type="int" name="OMEGAGRID">   140</i>
   <i name="CSHIFT">     -0.10000000</i>
   <i type="logical" name="SELFENERGY"> F  </i>
   <i type="logical" name="LSPECTRAL"> F  </i>
   <i type="logical" name="LSPECTRALGW"> F  </i>
   <i type="logical" name="LSINGLES"> F  </i>
   <i type="logical" name="LFERMIGW"> F  </i>
   <i type="logical" name="ODDONLYGW"> F  </i>
   <i type="logical" name="EVENONLYGW"> F  </i>
   <i type="int" name="NKREDLFX">     1</i>
   <i type="int" name="NKREDLFY">     1</i>
   <i type="int" name="NKREDLFZ">     1</i>
   <i type="int" name="MAXMEM">  2800</i>
   <i type="int" name="TELESCOPE">     0</i>
   <i type="int" name="TAUPAR">     1</i>
   <i type="int" name="OMEGAPAR">    -1</i>
   <i name="LAMBDA">      1.00000000</i>
  </separator>
  <separator name="External order field" >
   <i name="OFIELD_KAPPA">      0.00000000</i>
   <v name="OFIELD_K">      0.00000000      0.00000000      0.00000000</v>
   <i name="OFIELD_Q6_NEAR">      0.00000000</i>
   <i name="OFIELD_Q6_FAR">      0.00000000</i>
   <i name="OFIELD_A">      0.00000000</i>
  </separator>
 </parameters>
 <atominfo>
  <atoms>      18 </atoms>
  <types>       3 </types>
  <array name="atoms" >
   <dimension dim="1">ion</dimension>
   <field type="string">element</field>
   <field type="int">atomtype</field>
   <set>
    <rc><c>Cu</c><c>   1</c></rc>
    <rc><c>Cu</c><c>   1</c></rc>
    <rc><c>Cu</c><c>   1</c></rc>
    <rc><c>Cu</c><c>   1</c></rc>
    <rc><c>Cu</c><c>   1</c></rc>
    <rc><c>Cu</c><c>   1</c></rc>
    <rc><c>Cu</c><c>   1</c></rc>
    <rc><c>Cu</c><c>   1</c></rc>
    <rc><c>Cu</c><c>   1</c></rc>
    <rc><c>Cu</c><c>   1</c></rc>
    <rc><c>Cu</c><c>   1</c></rc>
    <rc><c>Cu</c><c>   1</c></rc>
    <rc><c>Cu</c><c>   1</c></rc>
    <rc><c>Cu</c><c>   1</c></rc>
    <rc><c>Cu</c><c>   1</c></rc>
    <rc><c>Cu</c><c>   1</c></rc>
    <rc><c>C </c><c>   2</c></rc>
    <rc><c>O </c><c>   3</c></rc>
   </set>
  </array>
  <array name="atomtypes" >
   <dimension dim="1">type</dimension>
   <field type="int">atomspertype</field>
   <field type="string">element</field>
   <field>mass</field>
   <field>valence</field>
   <field type="string">pseudopotential</field>
   <set>
    <rc><c>  16</c><c>Cu</c><c>     63.54600000</c><c>     11.00000000</c><c>  PAW_PBE Cu 22Jun2005                  </c></rc>
    <rc><c>   1</c><c>C </c><c>     12.01100000</c><c>      4.00000000</c><c>  PAW_PBE C 08Apr2002                   </c></rc>
    <rc><c>   1</c><c>O </c><c>     16.00000000</c><c>      6.00000000</c><c>  PAW_PBE O 08Apr2002                   </c></rc>
   </set>
  </array>
 </atominfo>
 <structure name="initialpos" >
  <crystal>
   <varray name="basis" >
    <v>       5.19996363       0.00000000       0.00000000 </v>
    <v>       2.59998182       4.50330060       0.00000000 </v>
    <v>       0.00000000       0.00000000      26.36862879 </v>
   </varray>
   <i name="volume">    617.47416323 </i>
   <varray name="rec_basis" >
    <v>       0.19230904      -0.11102967       0.00000000 </v>
    <v>       0.00000000       0.22205935       0.00000000 </v>
    <v>       0.00000000       0.00000000       0.03792385 </v>
   </varray>
  </crystal>
  <varray name="positions" >
   <v>       0.00000000       0.00000000       0.37923853 </v>
   <v>       0.50000000       0.00000000       0.37923853 </v>
   <v>       0.00000000       0.50000000       0.37923853 </v>
   <v>       0.50000000       0.50000000       0.37923853 </v>
   <v>       0.16666667       0.16666667       0.45974618 </v>
   <v>       0.66666667       0.16666667       0.45974618 </v>
   <v>       0.16666667       0.66666667       0.45974618 </v>
   <v>       0.66666667       0.66666667       0.45974618 </v>
   <v>       0.83248879       0.33307098       0.53916031 </v>
   <v>       0.33509512       0.33243379       0.53844507 </v>
   <v>       0.83250168       0.83441651       0.53915820 </v>
   <v>       0.33691317       0.83153294       0.54112155 </v>
   <v>       0.00202217       0.99898064       0.61816427 </v>
   <v>       0.49530183       0.00298692       0.62200661 </v>
   <v>       0.98866076       0.50566591       0.61725102 </v>
   <v>       0.49524931       0.50174250       0.62200129 </v>
   <v>       0.50443265       0.24779035       0.67988818 </v>
   <v>       0.50362631       0.24828784       0.72461490 </v>
  </varray>
  <varray name="selective"  type="logical" >
   <v type="logical" >  F  F  F </v>
   <v type="logical" >  F  F  F </v>
   <v type="logical" >  F  F  F </v>
   <v type="logical" >  F  F  F </v>
   <v type="logical" >  F  F  F </v>
   <v type="logical" >  F  F  F </v>
   <v type="logical" >  F  F  F </v>
   <v type="logical" >  F  F  F </v>
   <v type="logical" >  T  T  T </v>
   <v type="logical" >  T  T  T </v>
   <v type="logical" >  T  T  T </v>
   <v type="logical" >  T  T  T </v>
   <v type="logical" >  T  T  T </v>
   <v type="logical" >  T  T  T </v>
   <v type="logical" >  T  T  T </v>
   <v type="logical" >  T  T  T </v>
   <v type="logical" >  T  T  T </v>
   <v type="logical" >  T  T  T </v>
  </varray>
  <nose>
   <v>      -3.00000000       0.00000000       0.00010000       0.00010000 </v>
  </nose>
 </structure>
 <calculation>
  <scstep>
   <time name="dav">    2.83    2.86</time>
   <time name="total">    2.86    2.90</time>
   <energy>
    <i name="alphaZ">    333.59272159 </i>
    <i name="ewald"> 110078.94530320 </i>
    <i name="hartreedc">-131843.33171045 </i>
    <i name="XCdc">    758.03337388 </i>
    <i name="pawpsdc">  20119.38880325 </i>
    <i name="pawaedc"> -21798.78739505 </i>
    <i name="eentropy">     -0.00027609 </i>
    <i name="bandstr">   1159.89298440 </i>
    <i name="atom">  22817.67997243 </i>
    <i name="e_fr_energy">   1625.41377715 </i>
    <i name="e_wo_entrp">   1625.41405324 </i>
    <i name="e_0_energy">   1625.41386918 </i>
   </energy>
  </scstep>
  <scstep>
   <time name="dav">    2.78    2.78</time>
   <time name="total">    2.78    2.78</time>
   <energy>
    <i name="e_fr_energy">    156.64720758 </i>
    <i name="e_wo_entrp">    156.65436730 </i>
    <i name="e_0_energy">    156.64959416 </i>
   </energy>
  </scstep>
  <scstep>
   <time name="dav">    3.65    3.66</time>
   <time name="total">    3.65    3.66</time>
   <energy>
    <i name="e_fr_energy">    -50.54557096 </i>
    <i name="e_wo_entrp">    -50.54319882 </i>
    <i name="e_0_energy">    -50.54478024 </i>
   </energy>
  </scstep>
  <scstep>
   <time name="dav">    4.03    4.03</time>
   <time name="total">    4.03    4.03</time>
   <energy>
    <i name="e_fr_energy">    -76.28520728 </i>
    <i name="e_wo_entrp">    -76.28150580 </i>
    <i name="e_0_energy">    -76.28397346 </i>
   </energy>
  </scstep>
  <scstep>
   <time name="dav">    3.80    3.80</time>
   <time name="total">    3.96    3.96</time>
   <energy>
    <i name="e_fr_energy">    -77.56996151 </i>
    <i name="e_wo_entrp">    -77.56440226 </i>
    <i name="e_0_energy">    -77.56810843 </i>
   </energy>
  </scstep>
  <scstep>
   <time name="dav">    3.05    3.05</time>
   <time name="total">    3.24    3.24</time>
   <energy>
    <i name="e_fr_energy">    -74.21128086 </i>
    <i name="e_wo_entrp">    -74.19352875 </i>
    <i name="e_0_energy">    -74.20536349 </i>
   </energy>
  </scstep>
  <scstep>
   <time name="dav">    3.39    3.39</time>
   <time name="total">    3.58    3.58</time>
   <energy>
    <i name="e_fr_energy">    -64.06498639 </i>
    <i name="e_wo_entrp">    -64.06645275 </i>
    <i name="e_0_energy">    -64.06547518 </i>
   </energy>
  </scstep>
  <scstep>
   <time name="dav">    4.16    4.16</time>
   <time name="total">    4.35    4.35</time>
   <energy>
    <i name="e_fr_energy">    -64.00325206 </i>
    <i name="e_wo_entrp">    -64.03916653 </i>
    <i name="e_0_energy">    -64.01522355 </i>
   </energy>
  </scstep>
  <scstep>
   <time name="dav">    3.41    3.41</time>
   <time name="total">    3.62    3.62</time>
   <energy>
    <i name="e_fr_energy">    -63.82954805 </i>
    <i name="e_wo_entrp">    -63.83868864 </i>
    <i name="e_0_energy">    -63.83259491 </i>
   </energy>
  </scstep>
  <scstep>
   <time name="dav">    3.74    3.74</time>
   <time name="total">    3.95    3.95</time>
   <energy>
    <i name="e_fr_energy">    -63.82350653 </i>
    <i name="e_wo_entrp">    -63.84061027 </i>
    <i name="e_0_energy">    -63.82920777 </i>
   </energy>
  </scstep>
  <scstep>
   <time name="dav">    3.16    3.16</time>
   <time name="total">    3.36    3.36</time>
   <energy>
    <i name="e_fr_energy">    -63.81992237 </i>
    <i name="e_wo_entrp">    -63.83444413 </i>
    <i name="e_0_energy">    -63.82476296 </i>
   </energy>
  </scstep>
  <scstep>
   <time name="dav">    3.13    3.13</time>
   <time name="total">    3.33    3.33</time>
   <energy>
    <i name="e_fr_energy">    -63.79386784 </i>
    <i name="e_wo_entrp">    -63.81041889 </i>
    <i name="e_0_energy">    -63.79938486 </i>
   </energy>
  </scstep>
  <scstep>
   <time name="dav">    3.56    3.56</time>
   <time name="total">    3.75    3.75</time>
   <energy>
    <i name="e_fr_energy">    -63.78008940 </i>
    <i name="e_wo_entrp">    -63.79467763 </i>
    <i name="e_0_energy">    -63.78495215 </i>
   </energy>
  </scstep>
  <scstep>
   <time name="dav">    3.53    3.53</time>
   <time name="total">    3.72    3.72</time>
   <energy>
    <i name="e_fr_energy">    -63.78069165 </i>
    <i name="e_wo_entrp">    -63.79663962 </i>
    <i name="e_0_energy">    -63.78600764 </i>
   </energy>
  </scstep>
  <scstep>
   <time name="dav">    3.45    3.45</time>
   <time name="total">    3.64    3.64</time>
   <energy>
    <i name="e_fr_energy">    -63.78128952 </i>
    <i name="e_wo_entrp">    -63.79693534 </i>
    <i name="e_0_energy">    -63.78650479 </i>
   </energy>
  </scstep>
  <scstep>
   <time name="dav">    3.03    3.03</time>
   <time name="total">    3.21    3.21</time>
   <energy>
    <i name="e_fr_energy">    -63.77883964 </i>
    <i name="e_wo_entrp">    -63.79421181 </i>
    <i name="e_0_energy">    -63.78396370 </i>
   </energy>
  </scstep>
  <scstep>
   <time name="dav">    3.38    3.38</time>
   <time name="total">    3.56    3.56</time>
   <energy>
    <i name="e_fr_energy">    -63.77872204 </i>
    <i name="e_wo_entrp">    -63.79431705 </i>
    <i name="e_0_energy">    -63.78392037 </i>
   </energy>
  </scstep>
  <scstep>
   <time name="dav">    3.19    3.19</time>
   <time name="total">    3.21    3.21</time>
   <energy>
    <i name="alphaZ">    333.59272159 </i>
    <i name="ewald"> 110078.94530320 </i>
    <i name="hartreedc">-131596.75304271 </i>
    <i name="XCdc">    744.01375162 </i>
    <i name="pawpsdc">  21557.94282419 </i>
    <i name="pawaedc"> -23268.53975834 </i>
    <i name="eentropy">      0.01559712 </i>
    <i name="bandstr">   -730.67616808 </i>
    <i name="atom">  22817.67997243 </i>
    <i name="e_fr_energy">    -63.77879897 </i>
    <i name="e_wo_entrp">    -63.79439610 </i>
    <i name="e_0_energy">    -63.78399802 </i>
   </energy>
  </scstep>
  <structure>
   <crystal>
    <varray name="basis" >
     <v>       5.19996363       0.00000000       0.00000000 </v>
     <v>       2.59998182       4.50330060       0.00000000 </v>
     <v>       0.00000000       0.00000000      26.36862879 </v>
    </varray>
    <i name="volume">    617.47416323 </i>
    <varray name="rec_basis" >
     <v>       0.19230904      -0.11102967       0.00000000 </v>
     <v>       0.00000000       0.22205935       0.00000000 </v>
     <v>       0.00000000       0.00000000       0.03792385 </v>
    </varray>
   </crystal>
   <varray name="positions" >
    <v>       0.00000000       0.00000000       0.37923853 </v>
    <v>       0.50000000       0.00000000       0.37923853 </v>
    <v>       0.00000000       0.50000000       0.37923853 </v>
    <v>       0.50000000       0.50000000       0.37923853 </v>
    <v>       0.16666667       0.16666667       0.45974618 </v>
    <v>       0.66666667       0.16666667       0.45974618 </v>
    <v>       0.16666667       0.66666667       0.45974618 </v>
    <v>       0.66666667       0.66666667       0.45974618 </v>
    <v>       0.83248879       0.33307098       0.53916031 </v>
    <v>       0.33509512       0.33243379       0.53844507 </v>
    <v>       0.83250168       0.83441651       0.53915820 </v>
    <v>       0.33691317       0.83153294       0.54112155 </v>
    <v>       0.00202217       0.99898064       0.61816427 </v>
    <v>       0.49530183       0.00298692       0.62200661 </v>
    <v>       0.98866076       0.50566591       0.61725102 </v>
    <v>       0.49524931       0.50174250       0.62200129 </v>
    <v>       0.50443265       0.24779035       0.67988818 </v>
    <v>       0.50362631       0.24828784       0.72461490 </v>
   </varray>
  </structure>
  <varray name="forces" >
   <v>      -0.02623783       0.01507309       0.02123779 </v>
   <v>       0.01354257       0.02435676       0.06748257 </v>
   <v>       0.01996490      -0.01161238       0.04831791 </v>
   <v>      -0.01439907      -0.02405386       0.06741810 </v>
   <v>      -0.02892917      -0.04946080      -0.01261564 </v>
   <v>       0.05368700      -0.03103643      -0.05030912 </v>
   <v>       0.02827286       0.04954330      -0.01274748 </v>
   <v>      -0.03603014       0.02067766      -0.00137228 </v>
   <v>      -0.00044777      -0.00038047      -0.01683230 </v>
   <v>      -0.01599060       0.00918006      -0.01087069 </v>
   <v>       0.00011404       0.00059698      -0.01685801 </v>
   <v>      -0.00572000       0.00328424      -0.01230687 </v>
   <v>      -0.01200033       0.00701243      -0.00162977 </v>
   <v>      -0.00134082      -0.01247506      -0.02281982 </v>
   <v>      -0.00550234       0.00294832       0.00150850 </v>
   <v>       0.01027255       0.00729172      -0.02296640 </v>
   <v>       0.00645440      -0.00347428      -0.00471066 </v>
   <v>       0.01428976      -0.00747127      -0.01992582 </v>
  </varray>
  <energy>
   <i name="e_fr_energy">    -63.77879897 </i>
   <i name="e_wo_entrp">    -63.78399802 </i>
   <i name="e_0_energy">      0.01559712 </i>
  </energy>
  <time name="totalsc">   64.65   64.74</time>
  <eigenvalues>
   <array>
    <dimension dim="1">band</dimension>
    <dimension dim="2">kpoint</dimension>
    <dimension dim="3">spin</dimension>
    <field>eigene</field>
    <field>occ</field>
    <set>
     <set comment="spin 1">
      <set comment="kpoint 1">
       <r>  -24.4669    1.0000 </r>
       <r>  -10.9185    1.0000 </r>
       <r>   -9.2263    1.0000 </r>
       <r>   -8.3456    1.0000 </r>
       <r>   -7.5004    1.0000 </r>
       <r>   -7.4807    1.0000 </r>
       <r>   -7.3508    1.0000 </r>
       <r>   -6.1400    1.0000 </r>
       <r>   -5.5275    1.0000 </r>
       <r>   -5.3044    1.0000 </r>
       <r>   -5.2818    1.0000 </r>
       <r>   -5.2693    1.0000 </r>
       <r>   -5.1593    1.0000 </r>
       <r>   -5.1524    1.0000 </r>
       <r>   -5.1401    1.0000 </r>
       <r>   -4.9901    1.0000 </r>
       <r>   -4.8451    1.0000 </r>
       <r>   -4.8141    1.0000 </r>
       <r>   -4.7707    1.0000 </r>
       <r>   -4.7645    1.0000 </r>
       <r>   -4.7641    1.0000 </r>
       <r>   -4.7337    1.0000 </r>
       <r>   -4.7250    1.0000 </r>
       <r>   -4.6819    1.0000 </r>
       <r>   -4.4252    1.0000 </r>
       <r>   -4.4015    1.0000 </r>
       <r>   -4.3346    1.0000 </r>
       <r>   -3.9619    1.0000 </r>
       <r>   -3.9176    1.0000 </r>
       <r>   -3.8652    1.0000 </r>
       <r>   -3.7504    1.0000 </r>
       <r>   -3.7284    1.0000 </r>
       <r>   -3.6511    1.0000 </r>
       <r>   -3.6491    1.0000 </r>
       <r>   -3.6420    1.0000 </r>
       <r>   -3.6007    1.0000 </r>
       <r>   -3.5919    1.0000 </r>
       <r>   -3.5528    1.0000 </r>
       <r>   -3.5133    1.0000 </r>
       <r>   -3.4913    1.0000 </r>
       <r>   -3.4888    1.0000 </r>
       <r>   -3.4762    1.0000 </r>
       <r>   -3.4735    1.0000 </r>
       <r>   -3.4611    1.0000 </r>
       <r>   -3.4539    1.0000 </r>
       <r>   -3.3650    1.0000 </r>
       <r>   -3.3114    1.0000 </r>
       <r>   -3.3112    1.0000 </r>
       <r>   -3.3047    1.0000 </r>
       <r>   -3.2687    1.0000 </r>
       <r>   -3.2635    1.0000 </r>
       <r>   -3.2058    1.0000 </r>
       <r>   -3.0821    1.0000 </r>
       <r>   -3.0799    1.0000 </r>
       <r>   -3.0650    1.0000 </r>
       <r>   -2.9632    1.0000 </r>
       <r>   -2.9029    1.0000 </r>
       <r>   -2.8215    1.0000 </r>
       <r>   -2.7806    1.0000 </r>
       <r>   -2.7622    1.0000 </r>
       <r>   -2.7349    1.0000 </r>
       <r>   -2.6624    1.0000 </r>
       <r>   -2.6370    1.0000 </r>
       <r>   -2.6186    1.0000 </r>
       <r>   -2.5926    1.0000 </r>
       <r>   -2.5198    1.0000 </r>
       <r>   -2.5006    1.0000 </r>
       <r>   -2.4915    1.0000 </r>
       <r>   -2.4800    1.0000 </r>
       <r>   -2.3796    1.0000 </r>
       <r>   -2.3590    1.0000 </r>
       <r>   -2.3554    1.0000 </r>
       <r>   -2.3423    1.0000 </r>
       <r>   -2.3407    1.0000 </r>
       <r>   -2.3293    1.0000 </r>
       <r>   -2.3205    1.0000 </r>
       <r>   -2.3089    1.0000 </r>
       <r>   -2.2706    1.0000 </r>
       <r>   -2.2604    1.0000 </r>
       <r>   -2.2514    1.0000 </r>
       <r>   -2.2477    1.0000 </r>
       <r>   -2.2206    1.0000 </r>
       <r>   -2.1750    1.0000 </r>
       <r>   -2.1583    1.0000 </r>
       <r>   -2.1542    1.0000 </r>
       <r>   -2.1000    1.0000 </r>
       <r>   -2.0940    1.0000 </r>
       <r>   -2.0900    1.0000 </r>
       <r>   -1.4712    1.0000 </r>
       <r>   -1.0975    1.0148 </r>
       <r>   -0.9250    1.0160 </r>
       <r>   -0.8967    0.9865 </r>
       <r>   -0.3174   -0.0055 </r>
       <r>   -0.2668   -0.0021 </r>
       <r>    0.0116   -0.0000 </r>
       <r>    0.2692   -0.0000 </r>
       <r>    0.3408   -0.0000 </r>
       <r>    0.4676   -0.0000 </r>
       <r>    0.5538   -0.0000 </r>
       <r>    0.7362   -0.0000 </r>
       <r>    0.7601   -0.0000 </r>
       <r>    0.8162   -0.0000 </r>
       <r>    1.9629   -0.0000 </r>
       <r>    2.2691   -0.0000 </r>
       <r>    3.2595   -0.0000 </r>
       <r>    3.3105   -0.0000 </r>
       <r>    3.4285   -0.0000 </r>
       <r>    3.5557   -0.0000 </r>
       <r>    3.5922   -0.0000 </r>
       <r>    4.2607   -0.0000 </r>
       <r>    4.5150   -0.0000 </r>
       <r>    4.5334   -0.0000 </r>
      </set>
      <set comment="kpoint 2">
       <r>  -24.4676    1.0000 </r>
       <r>  -10.8790    1.0000 </r>
       <r>   -8.9471    1.0000 </r>
       <r>   -8.2008    1.0000 </r>
       <r>   -7.5086    1.0000 </r>
       <r>   -7.4173    1.0000 </r>
       <r>   -7.2830    1.0000 </r>
       <r>   -5.9444    1.0000 </r>
       <r>   -5.5957    1.0000 </r>
       <r>   -5.3552    1.0000 </r>
       <r>   -5.2470    1.0000 </r>
       <r>   -5.2138    1.0000 </r>
       <r>   -5.2124    1.0000 </r>
       <r>   -5.0808    1.0000 </r>
       <r>   -5.0627    1.0000 </r>
       <r>   -4.8980    1.0000 </r>
       <r>   -4.8492    1.0000 </r>
       <r>   -4.7709    1.0000 </r>
       <r>   -4.6928    1.0000 </r>
       <r>   -4.6682    1.0000 </r>
       <r>   -4.6680    1.0000 </r>
       <r>   -4.6213    1.0000 </r>
       <r>   -4.5876    1.0000 </r>
       <r>   -4.5694    1.0000 </r>
       <r>   -4.3485    1.0000 </r>
       <r>   -4.3352    1.0000 </r>
       <r>   -4.2883    1.0000 </r>
       <r>   -3.9553    1.0000 </r>
       <r>   -3.9284    1.0000 </r>
       <r>   -3.8965    1.0000 </r>
       <r>   -3.8374    1.0000 </r>
       <r>   -3.7423    1.0000 </r>
       <r>   -3.7255    1.0000 </r>
       <r>   -3.6695    1.0000 </r>
       <r>   -3.6287    1.0000 </r>
       <r>   -3.6175    1.0000 </r>
       <r>   -3.6014    1.0000 </r>
       <r>   -3.5725    1.0000 </r>
       <r>   -3.5410    1.0000 </r>
       <r>   -3.5255    1.0000 </r>
       <r>   -3.5237    1.0000 </r>
       <r>   -3.5117    1.0000 </r>
       <r>   -3.4681    1.0000 </r>
       <r>   -3.4384    1.0000 </r>
       <r>   -3.4218    1.0000 </r>
       <r>   -3.4140    1.0000 </r>
       <r>   -3.3991    1.0000 </r>
       <r>   -3.3978    1.0000 </r>
       <r>   -3.3712    1.0000 </r>
       <r>   -3.3229    1.0000 </r>
       <r>   -3.2602    1.0000 </r>
       <r>   -3.2480    1.0000 </r>
       <r>   -3.2047    1.0000 </r>
       <r>   -3.1987    1.0000 </r>
       <r>   -3.1007    1.0000 </r>
       <r>   -2.9871    1.0000 </r>
       <r>   -2.9310    1.0000 </r>
       <r>   -2.9194    1.0000 </r>
       <r>   -2.8915    1.0000 </r>
       <r>   -2.8329    1.0000 </r>
       <r>   -2.8255    1.0000 </r>
       <r>   -2.7874    1.0000 </r>
       <r>   -2.7780    1.0000 </r>
       <r>   -2.7141    1.0000 </r>
       <r>   -2.6851    1.0000 </r>
       <r>   -2.6792    1.0000 </r>
       <r>   -2.6481    1.0000 </r>
       <r>   -2.6205    1.0000 </r>
       <r>   -2.5708    1.0000 </r>
       <r>   -2.5220    1.0000 </r>
       <r>   -2.4977    1.0000 </r>
       <r>   -2.4507    1.0000 </r>
       <r>   -2.4424    1.0000 </r>
       <r>   -2.4295    1.0000 </r>
       <r>   -2.4225    1.0000 </r>
       <r>   -2.3833    1.0000 </r>
       <r>   -2.3788    1.0000 </r>
       <r>   -2.3741    1.0000 </r>
       <r>   -2.3459    1.0000 </r>
       <r>   -2.3295    1.0000 </r>
       <r>   -2.3101    1.0000 </r>
       <r>   -2.2947    1.0000 </r>
       <r>   -2.2667    1.0000 </r>
       <r>   -2.2427    1.0000 </r>
       <r>   -2.2347    1.0000 </r>
       <r>   -2.2155    1.0000 </r>
       <r>   -2.1951    1.0000 </r>
       <r>   -2.1652    1.0000 </r>
       <r>   -2.0881    1.0000 </r>
       <r>   -1.6951    1.0000 </r>
       <r>   -1.0753    1.0194 </r>
       <r>   -0.9495    1.0296 </r>
       <r>   -0.7766    0.6546 </r>
       <r>   -0.4263   -0.0247 </r>
       <r>   -0.4179   -0.0227 </r>
       <r>   -0.2465   -0.0014 </r>
       <r>    0.3467   -0.0000 </r>
       <r>    0.4749   -0.0000 </r>
       <r>    1.2679   -0.0000 </r>
       <r>    1.3494   -0.0000 </r>
       <r>    1.6896   -0.0000 </r>
       <r>    1.9996   -0.0000 </r>
       <r>    2.2647   -0.0000 </r>
       <r>    3.0322   -0.0000 </r>
       <r>    3.5463   -0.0000 </r>
       <r>    3.7202   -0.0000 </r>
       <r>    3.7523   -0.0000 </r>
       <r>    3.8848   -0.0000 </r>
       <r>    4.1725   -0.0000 </r>
       <r>    4.6334   -0.0000 </r>
       <r>    4.7921    0.0000 </r>
       <r>    4.8998    0.0000 </r>
      </set>
      <set comment="kpoint 3">
       <r>  -24.4677    1.0000 </r>
       <r>  -10.8182    1.0000 </r>
       <r>   -8.2435    1.0000 </r>
       <r>   -7.8519    1.0000 </r>
       <r>   -7.5209    1.0000 </r>
       <r>   -7.4739    1.0000 </r>
       <r>   -6.7956    1.0000 </r>
       <r>   -6.6345    1.0000 </r>
       <r>   -5.8024    1.0000 </r>
       <r>   -5.3308    1.0000 </r>
       <r>   -5.1103    1.0000 </r>
       <r>   -5.0730    1.0000 </r>
       <r>   -4.9137    1.0000 </r>
       <r>   -4.9044    1.0000 </r>
       <r>   -4.8474    1.0000 </r>
       <r>   -4.8264    1.0000 </r>
       <r>   -4.6727    1.0000 </r>
       <r>   -4.6257    1.0000 </r>
       <r>   -4.5859    1.0000 </r>
       <r>   -4.4755    1.0000 </r>
       <r>   -4.4498    1.0000 </r>
       <r>   -4.4201    1.0000 </r>
       <r>   -4.3744    1.0000 </r>
       <r>   -4.2913    1.0000 </r>
       <r>   -4.1757    1.0000 </r>
       <r>   -4.1680    1.0000 </r>
       <r>   -4.1567    1.0000 </r>
       <r>   -4.0850    1.0000 </r>
       <r>   -4.0381    1.0000 </r>
       <r>   -4.0233    1.0000 </r>
       <r>   -3.9364    1.0000 </r>
       <r>   -3.9117    1.0000 </r>
       <r>   -3.8592    1.0000 </r>
       <r>   -3.8331    1.0000 </r>
       <r>   -3.8058    1.0000 </r>
       <r>   -3.7770    1.0000 </r>
       <r>   -3.7481    1.0000 </r>
       <r>   -3.7367    1.0000 </r>
       <r>   -3.7028    1.0000 </r>
       <r>   -3.6587    1.0000 </r>
       <r>   -3.6147    1.0000 </r>
       <r>   -3.5380    1.0000 </r>
       <r>   -3.5374    1.0000 </r>
       <r>   -3.5095    1.0000 </r>
       <r>   -3.4706    1.0000 </r>
       <r>   -3.4526    1.0000 </r>
       <r>   -3.4222    1.0000 </r>
       <r>   -3.3573    1.0000 </r>
       <r>   -3.3449    1.0000 </r>
       <r>   -3.3421    1.0000 </r>
       <r>   -3.3304    1.0000 </r>
       <r>   -3.2864    1.0000 </r>
       <r>   -3.2773    1.0000 </r>
       <r>   -3.2518    1.0000 </r>
       <r>   -3.2399    1.0000 </r>
       <r>   -3.2054    1.0000 </r>
       <r>   -3.2015    1.0000 </r>
       <r>   -3.1500    1.0000 </r>
       <r>   -3.1360    1.0000 </r>
       <r>   -3.1015    1.0000 </r>
       <r>   -3.0524    1.0000 </r>
       <r>   -3.0078    1.0000 </r>
       <r>   -2.9718    1.0000 </r>
       <r>   -2.9162    1.0000 </r>
       <r>   -2.8713    1.0000 </r>
       <r>   -2.8685    1.0000 </r>
       <r>   -2.8433    1.0000 </r>
       <r>   -2.8172    1.0000 </r>
       <r>   -2.7513    1.0000 </r>
       <r>   -2.7293    1.0000 </r>
       <r>   -2.7279    1.0000 </r>
       <r>   -2.6905    1.0000 </r>
       <r>   -2.6786    1.0000 </r>
       <r>   -2.6726    1.0000 </r>
       <r>   -2.6267    1.0000 </r>
       <r>   -2.5958    1.0000 </r>
       <r>   -2.5931    1.0000 </r>
       <r>   -2.5406    1.0000 </r>
       <r>   -2.5181    1.0000 </r>
       <r>   -2.4995    1.0000 </r>
       <r>   -2.4236    1.0000 </r>
       <r>   -2.3831    1.0000 </r>
       <r>   -2.3128    1.0000 </r>
       <r>   -2.3031    1.0000 </r>
       <r>   -2.2864    1.0000 </r>
       <r>   -2.2593    1.0000 </r>
       <r>   -2.2379    1.0000 </r>
       <r>   -2.2190    1.0000 </r>
       <r>   -2.1683    1.0000 </r>
       <r>   -1.8074    1.0000 </r>
       <r>   -1.3151    1.0002 </r>
       <r>   -0.9815    1.0354 </r>
       <r>   -0.8311    0.8465 </r>
       <r>   -0.5685   -0.0027 </r>
       <r>   -0.4155   -0.0222 </r>
       <r>    0.0742   -0.0000 </r>
       <r>    0.3944   -0.0000 </r>
       <r>    0.6918   -0.0000 </r>
       <r>    1.0559   -0.0000 </r>
       <r>    1.7935   -0.0000 </r>
       <r>    2.0774   -0.0000 </r>
       <r>    2.5896   -0.0000 </r>
       <r>    3.1453   -0.0000 </r>
       <r>    3.7147   -0.0000 </r>
       <r>    4.2394   -0.0000 </r>
       <r>    4.5257   -0.0000 </r>
       <r>    4.7601    0.0000 </r>
       <r>    4.7754    0.0000 </r>
       <r>    5.0225    0.0000 </r>
       <r>    5.5372    0.0000 </r>
       <r>    5.6767    0.0000 </r>
       <r>    5.7940    0.0000 </r>
      </set>
      <set comment="kpoint 4">
       <r>  -24.4676    1.0000 </r>
       <r>  -10.8733    1.0000 </r>
       <r>   -8.9479    1.0000 </r>
       <r>   -8.1943    1.0000 </r>
       <r>   -7.5442    1.0000 </r>
       <r>   -7.3732    1.0000 </r>
       <r>   -7.2910    1.0000 </r>
       <r>   -5.9329    1.0000 </r>
       <r>   -5.6197    1.0000 </r>
       <r>   -5.3433    1.0000 </r>
       <r>   -5.2866    1.0000 </r>
       <r>   -5.2249    1.0000 </r>
       <r>   -5.1993    1.0000 </r>
       <r>   -5.0797    1.0000 </r>
       <r>   -5.0596    1.0000 </r>
       <r>   -4.9612    1.0000 </r>
       <r>   -4.8207    1.0000 </r>
       <r>   -4.7507    1.0000 </r>
       <r>   -4.6895    1.0000 </r>
       <r>   -4.6745    1.0000 </r>
       <r>   -4.6655    1.0000 </r>
       <r>   -4.6221    1.0000 </r>
       <r>   -4.6030    1.0000 </r>
       <r>   -4.5655    1.0000 </r>
       <r>   -4.3572    1.0000 </r>
       <r>   -4.3410    1.0000 </r>
       <r>   -4.2907    1.0000 </r>
       <r>   -3.9800    1.0000 </r>
       <r>   -3.9407    1.0000 </r>
       <r>   -3.8881    1.0000 </r>
       <r>   -3.8670    1.0000 </r>
       <r>   -3.7520    1.0000 </r>
       <r>   -3.7062    1.0000 </r>
       <r>   -3.6589    1.0000 </r>
       <r>   -3.6489    1.0000 </r>
       <r>   -3.6126    1.0000 </r>
       <r>   -3.5867    1.0000 </r>
       <r>   -3.5803    1.0000 </r>
       <r>   -3.5652    1.0000 </r>
       <r>   -3.5457    1.0000 </r>
       <r>   -3.5114    1.0000 </r>
       <r>   -3.4752    1.0000 </r>
       <r>   -3.4560    1.0000 </r>
       <r>   -3.4377    1.0000 </r>
       <r>   -3.4273    1.0000 </r>
       <r>   -3.4179    1.0000 </r>
       <r>   -3.3994    1.0000 </r>
       <r>   -3.3777    1.0000 </r>
       <r>   -3.3385    1.0000 </r>
       <r>   -3.3223    1.0000 </r>
       <r>   -3.2949    1.0000 </r>
       <r>   -3.2156    1.0000 </r>
       <r>   -3.1928    1.0000 </r>
       <r>   -3.1462    1.0000 </r>
       <r>   -3.1050    1.0000 </r>
       <r>   -3.0139    1.0000 </r>
       <r>   -2.9447    1.0000 </r>
       <r>   -2.9084    1.0000 </r>
       <r>   -2.8816    1.0000 </r>
       <r>   -2.8606    1.0000 </r>
       <r>   -2.8011    1.0000 </r>
       <r>   -2.7672    1.0000 </r>
       <r>   -2.7410    1.0000 </r>
       <r>   -2.7120    1.0000 </r>
       <r>   -2.6878    1.0000 </r>
       <r>   -2.6784    1.0000 </r>
       <r>   -2.6440    1.0000 </r>
       <r>   -2.6256    1.0000 </r>
       <r>   -2.5891    1.0000 </r>
       <r>   -2.5267    1.0000 </r>
       <r>   -2.5094    1.0000 </r>
       <r>   -2.4609    1.0000 </r>
       <r>   -2.4319    1.0000 </r>
       <r>   -2.4276    1.0000 </r>
       <r>   -2.4037    1.0000 </r>
       <r>   -2.3965    1.0000 </r>
       <r>   -2.3828    1.0000 </r>
       <r>   -2.3639    1.0000 </r>
       <r>   -2.3544    1.0000 </r>
       <r>   -2.3262    1.0000 </r>
       <r>   -2.3101    1.0000 </r>
       <r>   -2.2913    1.0000 </r>
       <r>   -2.2796    1.0000 </r>
       <r>   -2.2570    1.0000 </r>
       <r>   -2.2448    1.0000 </r>
       <r>   -2.2046    1.0000 </r>
       <r>   -2.1968    1.0000 </r>
       <r>   -2.1930    1.0000 </r>
       <r>   -2.0180    1.0000 </r>
       <r>   -1.6357    1.0000 </r>
       <r>   -1.0556    1.0239 </r>
       <r>   -0.9902    1.0353 </r>
       <r>   -0.8085    0.7740 </r>
       <r>   -0.4886   -0.0353 </r>
       <r>   -0.4091   -0.0207 </r>
       <r>   -0.2721   -0.0023 </r>
       <r>    0.4263   -0.0000 </r>
       <r>    0.5311   -0.0000 </r>
       <r>    0.9834   -0.0000 </r>
       <r>    1.5346   -0.0000 </r>
       <r>    1.6605   -0.0000 </r>
       <r>    2.0025   -0.0000 </r>
       <r>    2.4456   -0.0000 </r>
       <r>    2.8895   -0.0000 </r>
       <r>    3.5354   -0.0000 </r>
       <r>    3.6472   -0.0000 </r>
       <r>    3.8340   -0.0000 </r>
       <r>    3.8845   -0.0000 </r>
       <r>    4.1457   -0.0000 </r>
       <r>    4.6512   -0.0000 </r>
       <r>    4.7892    0.0000 </r>
       <r>    4.8726    0.0000 </r>
      </set>
      <set comment="kpoint 5">
       <r>  -24.4676    1.0000 </r>
       <r>  -10.8733    1.0000 </r>
       <r>   -8.9479    1.0000 </r>
       <r>   -8.1943    1.0000 </r>
       <r>   -7.5444    1.0000 </r>
       <r>   -7.3731    1.0000 </r>
       <r>   -7.2911    1.0000 </r>
       <r>   -5.9329    1.0000 </r>
       <r>   -5.6197    1.0000 </r>
       <r>   -5.3433    1.0000 </r>
       <r>   -5.2866    1.0000 </r>
       <r>   -5.2249    1.0000 </r>
       <r>   -5.1993    1.0000 </r>
       <r>   -5.0797    1.0000 </r>
       <r>   -5.0596    1.0000 </r>
       <r>   -4.9612    1.0000 </r>
       <r>   -4.8207    1.0000 </r>
       <r>   -4.7507    1.0000 </r>
       <r>   -4.6894    1.0000 </r>
       <r>   -4.6745    1.0000 </r>
       <r>   -4.6656    1.0000 </r>
       <r>   -4.6221    1.0000 </r>
       <r>   -4.6030    1.0000 </r>
       <r>   -4.5655    1.0000 </r>
       <r>   -4.3572    1.0000 </r>
       <r>   -4.3411    1.0000 </r>
       <r>   -4.2907    1.0000 </r>
       <r>   -3.9800    1.0000 </r>
       <r>   -3.9407    1.0000 </r>
       <r>   -3.8881    1.0000 </r>
       <r>   -3.8670    1.0000 </r>
       <r>   -3.7520    1.0000 </r>
       <r>   -3.7062    1.0000 </r>
       <r>   -3.6589    1.0000 </r>
       <r>   -3.6488    1.0000 </r>
       <r>   -3.6126    1.0000 </r>
       <r>   -3.5867    1.0000 </r>
       <r>   -3.5803    1.0000 </r>
       <r>   -3.5652    1.0000 </r>
       <r>   -3.5457    1.0000 </r>
       <r>   -3.5113    1.0000 </r>
       <r>   -3.4752    1.0000 </r>
       <r>   -3.4561    1.0000 </r>
       <r>   -3.4377    1.0000 </r>
       <r>   -3.4273    1.0000 </r>
       <r>   -3.4179    1.0000 </r>
       <r>   -3.3994    1.0000 </r>
       <r>   -3.3777    1.0000 </r>
       <r>   -3.3384    1.0000 </r>
       <r>   -3.3222    1.0000 </r>
       <r>   -3.2949    1.0000 </r>
       <r>   -3.2157    1.0000 </r>
       <r>   -3.1928    1.0000 </r>
       <r>   -3.1462    1.0000 </r>
       <r>   -3.1051    1.0000 </r>
       <r>   -3.0139    1.0000 </r>
       <r>   -2.9447    1.0000 </r>
       <r>   -2.9085    1.0000 </r>
       <r>   -2.8817    1.0000 </r>
       <r>   -2.8606    1.0000 </r>
       <r>   -2.8011    1.0000 </r>
       <r>   -2.7673    1.0000 </r>
       <r>   -2.7410    1.0000 </r>
       <r>   -2.7120    1.0000 </r>
       <r>   -2.6878    1.0000 </r>
       <r>   -2.6784    1.0000 </r>
       <r>   -2.6440    1.0000 </r>
       <r>   -2.6256    1.0000 </r>
       <r>   -2.5891    1.0000 </r>
       <r>   -2.5267    1.0000 </r>
       <r>   -2.5094    1.0000 </r>
       <r>   -2.4610    1.0000 </r>
       <r>   -2.4319    1.0000 </r>
       <r>   -2.4276    1.0000 </r>
       <r>   -2.4037    1.0000 </r>
       <r>   -2.3965    1.0000 </r>
       <r>   -2.3828    1.0000 </r>
       <r>   -2.3639    1.0000 </r>
       <r>   -2.3545    1.0000 </r>
       <r>   -2.3262    1.0000 </r>
       <r>   -2.3101    1.0000 </r>
       <r>   -2.2913    1.0000 </r>
       <r>   -2.2796    1.0000 </r>
       <r>   -2.2570    1.0000 </r>
       <r>   -2.2448    1.0000 </r>
       <r>   -2.2045    1.0000 </r>
       <r>   -2.1968    1.0000 </r>
       <r>   -2.1929    1.0000 </r>
       <r>   -2.0180    1.0000 </r>
       <r>   -1.6358    1.0000 </r>
       <r>   -1.0557    1.0239 </r>
       <r>   -0.9901    1.0353 </r>
       <r>   -0.8084    0.7739 </r>
       <r>   -0.4886   -0.0353 </r>
       <r>   -0.4091   -0.0207 </r>
       <r>   -0.2721   -0.0023 </r>
       <r>    0.4264   -0.0000 </r>
       <r>    0.5311   -0.0000 </r>
       <r>    0.9833   -0.0000 </r>
       <r>    1.5346   -0.0000 </r>
       <r>    1.6605   -0.0000 </r>
       <r>    2.0024   -0.0000 </r>
       <r>    2.4457   -0.0000 </r>
       <r>    2.8894   -0.0000 </r>
       <r>    3.5355   -0.0000 </r>
       <r>    3.6471   -0.0000 </r>
       <r>    3.8340   -0.0000 </r>
       <r>    3.8843   -0.0000 </r>
       <r>    4.1460   -0.0000 </r>
       <r>    4.6513   -0.0000 </r>
       <r>    4.7891    0.0000 </r>
       <r>    4.8728    0.0000 </r>
      </set>
      <set comment="kpoint 6">
       <r>  -24.4674    1.0000 </r>
       <r>  -10.8241    1.0000 </r>
       <r>   -8.4327    1.0000 </r>
       <r>   -7.9632    1.0000 </r>
       <r>   -7.5550    1.0000 </r>
       <r>   -7.4233    1.0000 </r>
       <r>   -6.9075    1.0000 </r>
       <r>   -5.9399    1.0000 </r>
       <r>   -5.9298    1.0000 </r>
       <r>   -5.5500    1.0000 </r>
       <r>   -5.3608    1.0000 </r>
       <r>   -5.2839    1.0000 </r>
       <r>   -4.9969    1.0000 </r>
       <r>   -4.8628    1.0000 </r>
       <r>   -4.8322    1.0000 </r>
       <r>   -4.8049    1.0000 </r>
       <r>   -4.7575    1.0000 </r>
       <r>   -4.5754    1.0000 </r>
       <r>   -4.5493    1.0000 </r>
       <r>   -4.5365    1.0000 </r>
       <r>   -4.5009    1.0000 </r>
       <r>   -4.4474    1.0000 </r>
       <r>   -4.4226    1.0000 </r>
       <r>   -4.3800    1.0000 </r>
       <r>   -4.2269    1.0000 </r>
       <r>   -4.2135    1.0000 </r>
       <r>   -4.1949    1.0000 </r>
       <r>   -4.0742    1.0000 </r>
       <r>   -4.0109    1.0000 </r>
       <r>   -3.9585    1.0000 </r>
       <r>   -3.9421    1.0000 </r>
       <r>   -3.9029    1.0000 </r>
       <r>   -3.8284    1.0000 </r>
       <r>   -3.8170    1.0000 </r>
       <r>   -3.7650    1.0000 </r>
       <r>   -3.7578    1.0000 </r>
       <r>   -3.7040    1.0000 </r>
       <r>   -3.6944    1.0000 </r>
       <r>   -3.6444    1.0000 </r>
       <r>   -3.6150    1.0000 </r>
       <r>   -3.5724    1.0000 </r>
       <r>   -3.5362    1.0000 </r>
       <r>   -3.5070    1.0000 </r>
       <r>   -3.4958    1.0000 </r>
       <r>   -3.4644    1.0000 </r>
       <r>   -3.4444    1.0000 </r>
       <r>   -3.4054    1.0000 </r>
       <r>   -3.3831    1.0000 </r>
       <r>   -3.3588    1.0000 </r>
       <r>   -3.3242    1.0000 </r>
       <r>   -3.3029    1.0000 </r>
       <r>   -3.2799    1.0000 </r>
       <r>   -3.2351    1.0000 </r>
       <r>   -3.2224    1.0000 </r>
       <r>   -3.1747    1.0000 </r>
       <r>   -3.1505    1.0000 </r>
       <r>   -3.1236    1.0000 </r>
       <r>   -3.0817    1.0000 </r>
       <r>   -3.0771    1.0000 </r>
       <r>   -3.0311    1.0000 </r>
       <r>   -3.0062    1.0000 </r>
       <r>   -2.9818    1.0000 </r>
       <r>   -2.9658    1.0000 </r>
       <r>   -2.9179    1.0000 </r>
       <r>   -2.9134    1.0000 </r>
       <r>   -2.8265    1.0000 </r>
       <r>   -2.7774    1.0000 </r>
       <r>   -2.7518    1.0000 </r>
       <r>   -2.7264    1.0000 </r>
       <r>   -2.7057    1.0000 </r>
       <r>   -2.6607    1.0000 </r>
       <r>   -2.6402    1.0000 </r>
       <r>   -2.6078    1.0000 </r>
       <r>   -2.5839    1.0000 </r>
       <r>   -2.5677    1.0000 </r>
       <r>   -2.5285    1.0000 </r>
       <r>   -2.4382    1.0000 </r>
       <r>   -2.4290    1.0000 </r>
       <r>   -2.4212    1.0000 </r>
       <r>   -2.3825    1.0000 </r>
       <r>   -2.3784    1.0000 </r>
       <r>   -2.3463    1.0000 </r>
       <r>   -2.3424    1.0000 </r>
       <r>   -2.3149    1.0000 </r>
       <r>   -2.2842    1.0000 </r>
       <r>   -2.2631    1.0000 </r>
       <r>   -2.2376    1.0000 </r>
       <r>   -2.0902    1.0000 </r>
       <r>   -2.0555    1.0000 </r>
       <r>   -1.9605    1.0000 </r>
       <r>   -1.8725    1.0000 </r>
       <r>   -1.5635    1.0000 </r>
       <r>   -0.8773    0.9562 </r>
       <r>   -0.7542    0.5626 </r>
       <r>    0.0558   -0.0000 </r>
       <r>    0.6526   -0.0000 </r>
       <r>    0.8079   -0.0000 </r>
       <r>    0.9697   -0.0000 </r>
       <r>    1.1648   -0.0000 </r>
       <r>    1.5711   -0.0000 </r>
       <r>    2.0864   -0.0000 </r>
       <r>    2.2531   -0.0000 </r>
       <r>    2.6998   -0.0000 </r>
       <r>    3.1801   -0.0000 </r>
       <r>    3.9581   -0.0000 </r>
       <r>    4.1290   -0.0000 </r>
       <r>    4.3022   -0.0000 </r>
       <r>    4.4849   -0.0000 </r>
       <r>    5.1182    0.0000 </r>
       <r>    5.2759    0.0000 </r>
       <r>    5.3972    0.0000 </r>
       <r>    5.5431    0.0000 </r>
      </set>
      <set comment="kpoint 7">
       <r>  -24.4677    1.0000 </r>
       <r>  -10.7954    1.0000 </r>
       <r>   -8.0470    1.0000 </r>
       <r>   -7.5599    1.0000 </r>
       <r>   -7.5097    1.0000 </r>
       <r>   -7.2024    1.0000 </r>
       <r>   -7.1259    1.0000 </r>
       <r>   -6.2014    1.0000 </r>
       <r>   -6.0737    1.0000 </r>
       <r>   -5.9801    1.0000 </r>
       <r>   -5.3451    1.0000 </r>
       <r>   -5.0020    1.0000 </r>
       <r>   -4.8851    1.0000 </r>
       <r>   -4.7039    1.0000 </r>
       <r>   -4.6172    1.0000 </r>
       <r>   -4.5824    1.0000 </r>
       <r>   -4.5431    1.0000 </r>
       <r>   -4.5197    1.0000 </r>
       <r>   -4.4710    1.0000 </r>
       <r>   -4.4125    1.0000 </r>
       <r>   -4.3285    1.0000 </r>
       <r>   -4.3002    1.0000 </r>
       <r>   -4.2753    1.0000 </r>
       <r>   -4.2409    1.0000 </r>
       <r>   -4.2131    1.0000 </r>
       <r>   -4.1899    1.0000 </r>
       <r>   -4.1688    1.0000 </r>
       <r>   -4.1261    1.0000 </r>
       <r>   -4.0638    1.0000 </r>
       <r>   -4.0473    1.0000 </r>
       <r>   -4.0265    1.0000 </r>
       <r>   -4.0072    1.0000 </r>
       <r>   -3.9921    1.0000 </r>
       <r>   -3.9213    1.0000 </r>
       <r>   -3.8634    1.0000 </r>
       <r>   -3.8513    1.0000 </r>
       <r>   -3.8171    1.0000 </r>
       <r>   -3.7987    1.0000 </r>
       <r>   -3.7753    1.0000 </r>
       <r>   -3.7263    1.0000 </r>
       <r>   -3.7011    1.0000 </r>
       <r>   -3.6341    1.0000 </r>
       <r>   -3.6244    1.0000 </r>
       <r>   -3.5894    1.0000 </r>
       <r>   -3.5826    1.0000 </r>
       <r>   -3.5715    1.0000 </r>
       <r>   -3.5165    1.0000 </r>
       <r>   -3.4882    1.0000 </r>
       <r>   -3.4330    1.0000 </r>
       <r>   -3.4006    1.0000 </r>
       <r>   -3.3620    1.0000 </r>
       <r>   -3.3384    1.0000 </r>
       <r>   -3.3229    1.0000 </r>
       <r>   -3.3014    1.0000 </r>
       <r>   -3.2565    1.0000 </r>
       <r>   -3.2173    1.0000 </r>
       <r>   -3.1638    1.0000 </r>
       <r>   -3.1444    1.0000 </r>
       <r>   -3.0908    1.0000 </r>
       <r>   -3.0456    1.0000 </r>
       <r>   -2.9974    1.0000 </r>
       <r>   -2.9895    1.0000 </r>
       <r>   -2.9759    1.0000 </r>
       <r>   -2.9381    1.0000 </r>
       <r>   -2.8792    1.0000 </r>
       <r>   -2.8567    1.0000 </r>
       <r>   -2.8346    1.0000 </r>
       <r>   -2.8081    1.0000 </r>
       <r>   -2.7685    1.0000 </r>
       <r>   -2.7485    1.0000 </r>
       <r>   -2.7406    1.0000 </r>
       <r>   -2.7002    1.0000 </r>
       <r>   -2.6491    1.0000 </r>
       <r>   -2.6367    1.0000 </r>
       <r>   -2.6088    1.0000 </r>
       <r>   -2.5888    1.0000 </r>
       <r>   -2.5403    1.0000 </r>
       <r>   -2.4973    1.0000 </r>
       <r>   -2.4850    1.0000 </r>
       <r>   -2.4821    1.0000 </r>
       <r>   -2.4718    1.0000 </r>
       <r>   -2.3959    1.0000 </r>
       <r>   -2.3794    1.0000 </r>
       <r>   -2.3614    1.0000 </r>
       <r>   -2.3429    1.0000 </r>
       <r>   -2.3217    1.0000 </r>
       <r>   -2.3068    1.0000 </r>
       <r>   -2.2532    1.0000 </r>
       <r>   -2.1719    1.0000 </r>
       <r>   -1.9636    1.0000 </r>
       <r>   -1.8182    1.0000 </r>
       <r>   -1.6737    1.0000 </r>
       <r>   -1.1537    1.0063 </r>
       <r>   -0.6735    0.2372 </r>
       <r>    0.0450   -0.0000 </r>
       <r>    0.5958   -0.0000 </r>
       <r>    0.9110   -0.0000 </r>
       <r>    1.2462   -0.0000 </r>
       <r>    1.7488   -0.0000 </r>
       <r>    1.9436   -0.0000 </r>
       <r>    2.3707   -0.0000 </r>
       <r>    2.9124   -0.0000 </r>
       <r>    3.0392   -0.0000 </r>
       <r>    3.8152   -0.0000 </r>
       <r>    3.8989   -0.0000 </r>
       <r>    4.2599   -0.0000 </r>
       <r>    4.5697   -0.0000 </r>
       <r>    4.9229    0.0000 </r>
       <r>    5.1066    0.0000 </r>
       <r>    5.2089    0.0000 </r>
       <r>    5.6394    0.0000 </r>
       <r>    5.6639    0.0000 </r>
      </set>
      <set comment="kpoint 8">
       <r>  -24.4674    1.0000 </r>
       <r>  -10.8241    1.0000 </r>
       <r>   -8.4327    1.0000 </r>
       <r>   -7.9632    1.0000 </r>
       <r>   -7.5547    1.0000 </r>
       <r>   -7.4236    1.0000 </r>
       <r>   -6.9075    1.0000 </r>
       <r>   -5.9399    1.0000 </r>
       <r>   -5.9298    1.0000 </r>
       <r>   -5.5500    1.0000 </r>
       <r>   -5.3607    1.0000 </r>
       <r>   -5.2839    1.0000 </r>
       <r>   -4.9969    1.0000 </r>
       <r>   -4.8628    1.0000 </r>
       <r>   -4.8323    1.0000 </r>
       <r>   -4.8048    1.0000 </r>
       <r>   -4.7575    1.0000 </r>
       <r>   -4.5754    1.0000 </r>
       <r>   -4.5493    1.0000 </r>
       <r>   -4.5365    1.0000 </r>
       <r>   -4.5008    1.0000 </r>
       <r>   -4.4474    1.0000 </r>
       <r>   -4.4226    1.0000 </r>
       <r>   -4.3800    1.0000 </r>
       <r>   -4.2269    1.0000 </r>
       <r>   -4.2134    1.0000 </r>
       <r>   -4.1949    1.0000 </r>
       <r>   -4.0741    1.0000 </r>
       <r>   -4.0109    1.0000 </r>
       <r>   -3.9585    1.0000 </r>
       <r>   -3.9421    1.0000 </r>
       <r>   -3.9029    1.0000 </r>
       <r>   -3.8284    1.0000 </r>
       <r>   -3.8170    1.0000 </r>
       <r>   -3.7650    1.0000 </r>
       <r>   -3.7579    1.0000 </r>
       <r>   -3.7040    1.0000 </r>
       <r>   -3.6944    1.0000 </r>
       <r>   -3.6444    1.0000 </r>
       <r>   -3.6150    1.0000 </r>
       <r>   -3.5724    1.0000 </r>
       <r>   -3.5362    1.0000 </r>
       <r>   -3.5070    1.0000 </r>
       <r>   -3.4958    1.0000 </r>
       <r>   -3.4644    1.0000 </r>
       <r>   -3.4444    1.0000 </r>
       <r>   -3.4054    1.0000 </r>
       <r>   -3.3831    1.0000 </r>
       <r>   -3.3588    1.0000 </r>
       <r>   -3.3242    1.0000 </r>
       <r>   -3.3029    1.0000 </r>
       <r>   -3.2800    1.0000 </r>
       <r>   -3.2351    1.0000 </r>
       <r>   -3.2224    1.0000 </r>
       <r>   -3.1747    1.0000 </r>
       <r>   -3.1504    1.0000 </r>
       <r>   -3.1236    1.0000 </r>
       <r>   -3.0817    1.0000 </r>
       <r>   -3.0771    1.0000 </r>
       <r>   -3.0312    1.0000 </r>
       <r>   -3.0062    1.0000 </r>
       <r>   -2.9818    1.0000 </r>
       <r>   -2.9657    1.0000 </r>
       <r>   -2.9178    1.0000 </r>
       <r>   -2.9134    1.0000 </r>
       <r>   -2.8265    1.0000 </r>
       <r>   -2.7773    1.0000 </r>
       <r>   -2.7517    1.0000 </r>
       <r>   -2.7264    1.0000 </r>
       <r>   -2.7056    1.0000 </r>
       <r>   -2.6606    1.0000 </r>
       <r>   -2.6402    1.0000 </r>
       <r>   -2.6078    1.0000 </r>
       <r>   -2.5840    1.0000 </r>
       <r>   -2.5677    1.0000 </r>
       <r>   -2.5285    1.0000 </r>
       <r>   -2.4382    1.0000 </r>
       <r>   -2.4290    1.0000 </r>
       <r>   -2.4213    1.0000 </r>
       <r>   -2.3825    1.0000 </r>
       <r>   -2.3784    1.0000 </r>
       <r>   -2.3463    1.0000 </r>
       <r>   -2.3424    1.0000 </r>
       <r>   -2.3149    1.0000 </r>
       <r>   -2.2842    1.0000 </r>
       <r>   -2.2632    1.0000 </r>
       <r>   -2.2376    1.0000 </r>
       <r>   -2.0902    1.0000 </r>
       <r>   -2.0555    1.0000 </r>
       <r>   -1.9605    1.0000 </r>
       <r>   -1.8725    1.0000 </r>
       <r>   -1.5635    1.0000 </r>
       <r>   -0.8773    0.9563 </r>
       <r>   -0.7542    0.5626 </r>
       <r>    0.0558   -0.0000 </r>
       <r>    0.6526   -0.0000 </r>
       <r>    0.8079   -0.0000 </r>
       <r>    0.9697   -0.0000 </r>
       <r>    1.1647   -0.0000 </r>
       <r>    1.5711   -0.0000 </r>
       <r>    2.0861   -0.0000 </r>
       <r>    2.2530   -0.0000 </r>
       <r>    2.7003   -0.0000 </r>
       <r>    3.1799   -0.0000 </r>
       <r>    3.9582   -0.0000 </r>
       <r>    4.1292   -0.0000 </r>
       <r>    4.3024   -0.0000 </r>
       <r>    4.4844   -0.0000 </r>
       <r>    5.1181    0.0000 </r>
       <r>    5.2758    0.0000 </r>
       <r>    5.3973    0.0000 </r>
       <r>    5.5426    0.0000 </r>
      </set>
      <set comment="kpoint 9">
       <r>  -24.4676    1.0000 </r>
       <r>  -10.8028    1.0000 </r>
       <r>   -8.2226    1.0000 </r>
       <r>   -7.8456    1.0000 </r>
       <r>   -7.6112    1.0000 </r>
       <r>   -7.3890    1.0000 </r>
       <r>   -6.7640    1.0000 </r>
       <r>   -6.6884    1.0000 </r>
       <r>   -5.8391    1.0000 </r>
       <r>   -5.3824    1.0000 </r>
       <r>   -5.0942    1.0000 </r>
       <r>   -5.0833    1.0000 </r>
       <r>   -4.9631    1.0000 </r>
       <r>   -4.8911    1.0000 </r>
       <r>   -4.8736    1.0000 </r>
       <r>   -4.8431    1.0000 </r>
       <r>   -4.6527    1.0000 </r>
       <r>   -4.6331    1.0000 </r>
       <r>   -4.5839    1.0000 </r>
       <r>   -4.4620    1.0000 </r>
       <r>   -4.4523    1.0000 </r>
       <r>   -4.4258    1.0000 </r>
       <r>   -4.3313    1.0000 </r>
       <r>   -4.3130    1.0000 </r>
       <r>   -4.2011    1.0000 </r>
       <r>   -4.1843    1.0000 </r>
       <r>   -4.1594    1.0000 </r>
       <r>   -4.1102    1.0000 </r>
       <r>   -4.0578    1.0000 </r>
       <r>   -4.0397    1.0000 </r>
       <r>   -3.9534    1.0000 </r>
       <r>   -3.9063    1.0000 </r>
       <r>   -3.8898    1.0000 </r>
       <r>   -3.8388    1.0000 </r>
       <r>   -3.8169    1.0000 </r>
       <r>   -3.8053    1.0000 </r>
       <r>   -3.7881    1.0000 </r>
       <r>   -3.7189    1.0000 </r>
       <r>   -3.7027    1.0000 </r>
       <r>   -3.6601    1.0000 </r>
       <r>   -3.5758    1.0000 </r>
       <r>   -3.5487    1.0000 </r>
       <r>   -3.5224    1.0000 </r>
       <r>   -3.4916    1.0000 </r>
       <r>   -3.4523    1.0000 </r>
       <r>   -3.4071    1.0000 </r>
       <r>   -3.3749    1.0000 </r>
       <r>   -3.3615    1.0000 </r>
       <r>   -3.3414    1.0000 </r>
       <r>   -3.3340    1.0000 </r>
       <r>   -3.3223    1.0000 </r>
       <r>   -3.2937    1.0000 </r>
       <r>   -3.2725    1.0000 </r>
       <r>   -3.2392    1.0000 </r>
       <r>   -3.2152    1.0000 </r>
       <r>   -3.1681    1.0000 </r>
       <r>   -3.1528    1.0000 </r>
       <r>   -3.1168    1.0000 </r>
       <r>   -3.1059    1.0000 </r>
       <r>   -3.0693    1.0000 </r>
       <r>   -3.0373    1.0000 </r>
       <r>   -3.0159    1.0000 </r>
       <r>   -2.9886    1.0000 </r>
       <r>   -2.9229    1.0000 </r>
       <r>   -2.8739    1.0000 </r>
       <r>   -2.8390    1.0000 </r>
       <r>   -2.8313    1.0000 </r>
       <r>   -2.7885    1.0000 </r>
       <r>   -2.7715    1.0000 </r>
       <r>   -2.7399    1.0000 </r>
       <r>   -2.7106    1.0000 </r>
       <r>   -2.6891    1.0000 </r>
       <r>   -2.6870    1.0000 </r>
       <r>   -2.6704    1.0000 </r>
       <r>   -2.6357    1.0000 </r>
       <r>   -2.5955    1.0000 </r>
       <r>   -2.5756    1.0000 </r>
       <r>   -2.5324    1.0000 </r>
       <r>   -2.5156    1.0000 </r>
       <r>   -2.4763    1.0000 </r>
       <r>   -2.4495    1.0000 </r>
       <r>   -2.4314    1.0000 </r>
       <r>   -2.3285    1.0000 </r>
       <r>   -2.3093    1.0000 </r>
       <r>   -2.2782    1.0000 </r>
       <r>   -2.2634    1.0000 </r>
       <r>   -2.2549    1.0000 </r>
       <r>   -2.2000    1.0000 </r>
       <r>   -2.1906    1.0000 </r>
       <r>   -1.8210    1.0000 </r>
       <r>   -1.2688    1.0006 </r>
       <r>   -0.9443    1.0275 </r>
       <r>   -0.8714    0.9453 </r>
       <r>   -0.5135   -0.0339 </r>
       <r>   -0.4666   -0.0330 </r>
       <r>   -0.0394   -0.0000 </r>
       <r>    0.4797   -0.0000 </r>
       <r>    0.6323   -0.0000 </r>
       <r>    1.0478   -0.0000 </r>
       <r>    1.8409   -0.0000 </r>
       <r>    2.0927   -0.0000 </r>
       <r>    2.5097   -0.0000 </r>
       <r>    3.3190   -0.0000 </r>
       <r>    3.7643   -0.0000 </r>
       <r>    4.1921   -0.0000 </r>
       <r>    4.4435   -0.0000 </r>
       <r>    4.7211    0.0000 </r>
       <r>    4.7843    0.0000 </r>
       <r>    4.9020    0.0000 </r>
       <r>    5.5378    0.0000 </r>
       <r>    5.6561    0.0000 </r>
       <r>    5.7203    0.0000 </r>
      </set>
      <set comment="kpoint 10">
       <r>  -24.4674    1.0000 </r>
       <r>  -10.8147    1.0000 </r>
       <r>   -8.4284    1.0000 </r>
       <r>   -7.9511    1.0000 </r>
       <r>   -7.5960    1.0000 </r>
       <r>   -7.3847    1.0000 </r>
       <r>   -6.9181    1.0000 </r>
       <r>   -5.9448    1.0000 </r>
       <r>   -5.9310    1.0000 </r>
       <r>   -5.5485    1.0000 </r>
       <r>   -5.3669    1.0000 </r>
       <r>   -5.3288    1.0000 </r>
       <r>   -5.0019    1.0000 </r>
       <r>   -4.8697    1.0000 </r>
       <r>   -4.8372    1.0000 </r>
       <r>   -4.8048    1.0000 </r>
       <r>   -4.7963    1.0000 </r>
       <r>   -4.5608    1.0000 </r>
       <r>   -4.5401    1.0000 </r>
       <r>   -4.5259    1.0000 </r>
       <r>   -4.4997    1.0000 </r>
       <r>   -4.4561    1.0000 </r>
       <r>   -4.4255    1.0000 </r>
       <r>   -4.3905    1.0000 </r>
       <r>   -4.2327    1.0000 </r>
       <r>   -4.2262    1.0000 </r>
       <r>   -4.2070    1.0000 </r>
       <r>   -4.0879    1.0000 </r>
       <r>   -4.0108    1.0000 </r>
       <r>   -3.9892    1.0000 </r>
       <r>   -3.9437    1.0000 </r>
       <r>   -3.9037    1.0000 </r>
       <r>   -3.8613    1.0000 </r>
       <r>   -3.8224    1.0000 </r>
       <r>   -3.7662    1.0000 </r>
       <r>   -3.7377    1.0000 </r>
       <r>   -3.7199    1.0000 </r>
       <r>   -3.6957    1.0000 </r>
       <r>   -3.6878    1.0000 </r>
       <r>   -3.5770    1.0000 </r>
       <r>   -3.5517    1.0000 </r>
       <r>   -3.5275    1.0000 </r>
       <r>   -3.5179    1.0000 </r>
       <r>   -3.5145    1.0000 </r>
       <r>   -3.4457    1.0000 </r>
       <r>   -3.4246    1.0000 </r>
       <r>   -3.3960    1.0000 </r>
       <r>   -3.3536    1.0000 </r>
       <r>   -3.3442    1.0000 </r>
       <r>   -3.3213    1.0000 </r>
       <r>   -3.2739    1.0000 </r>
       <r>   -3.2514    1.0000 </r>
       <r>   -3.2313    1.0000 </r>
       <r>   -3.2024    1.0000 </r>
       <r>   -3.1636    1.0000 </r>
       <r>   -3.1351    1.0000 </r>
       <r>   -3.1225    1.0000 </r>
       <r>   -3.0918    1.0000 </r>
       <r>   -3.0512    1.0000 </r>
       <r>   -3.0255    1.0000 </r>
       <r>   -3.0046    1.0000 </r>
       <r>   -2.9833    1.0000 </r>
       <r>   -2.9640    1.0000 </r>
       <r>   -2.9327    1.0000 </r>
       <r>   -2.8668    1.0000 </r>
       <r>   -2.8044    1.0000 </r>
       <r>   -2.7871    1.0000 </r>
       <r>   -2.7363    1.0000 </r>
       <r>   -2.7220    1.0000 </r>
       <r>   -2.6706    1.0000 </r>
       <r>   -2.6656    1.0000 </r>
       <r>   -2.6515    1.0000 </r>
       <r>   -2.6276    1.0000 </r>
       <r>   -2.5748    1.0000 </r>
       <r>   -2.5637    1.0000 </r>
       <r>   -2.5099    1.0000 </r>
       <r>   -2.4794    1.0000 </r>
       <r>   -2.4436    1.0000 </r>
       <r>   -2.4292    1.0000 </r>
       <r>   -2.3899    1.0000 </r>
       <r>   -2.3810    1.0000 </r>
       <r>   -2.3727    1.0000 </r>
       <r>   -2.3291    1.0000 </r>
       <r>   -2.3029    1.0000 </r>
       <r>   -2.2822    1.0000 </r>
       <r>   -2.2814    1.0000 </r>
       <r>   -2.2441    1.0000 </r>
       <r>   -2.0799    1.0000 </r>
       <r>   -2.0627    1.0000 </r>
       <r>   -1.9628    1.0000 </r>
       <r>   -1.8772    1.0000 </r>
       <r>   -1.4973    1.0000 </r>
       <r>   -0.9708    1.0347 </r>
       <r>   -0.6982    0.3299 </r>
       <r>    0.1950   -0.0000 </r>
       <r>    0.4979   -0.0000 </r>
       <r>    0.5743   -0.0000 </r>
       <r>    0.9178   -0.0000 </r>
       <r>    1.3850   -0.0000 </r>
       <r>    1.7131   -0.0000 </r>
       <r>    2.0371   -0.0000 </r>
       <r>    2.2330   -0.0000 </r>
       <r>    2.7831   -0.0000 </r>
       <r>    3.0624   -0.0000 </r>
       <r>    3.9557   -0.0000 </r>
       <r>    4.0796   -0.0000 </r>
       <r>    4.4724   -0.0000 </r>
       <r>    4.5641   -0.0000 </r>
       <r>    4.8327    0.0000 </r>
       <r>    5.3001    0.0000 </r>
       <r>    5.3936    0.0000 </r>
       <r>    5.5428    0.0000 </r>
      </set>
      <set comment="kpoint 11">
       <r>  -24.4676    1.0000 </r>
       <r>  -10.8028    1.0000 </r>
       <r>   -8.2227    1.0000 </r>
       <r>   -7.8456    1.0000 </r>
       <r>   -7.6116    1.0000 </r>
       <r>   -7.3889    1.0000 </r>
       <r>   -6.7640    1.0000 </r>
       <r>   -6.6884    1.0000 </r>
       <r>   -5.8391    1.0000 </r>
       <r>   -5.3824    1.0000 </r>
       <r>   -5.0941    1.0000 </r>
       <r>   -5.0833    1.0000 </r>
       <r>   -4.9631    1.0000 </r>
       <r>   -4.8911    1.0000 </r>
       <r>   -4.8735    1.0000 </r>
       <r>   -4.8430    1.0000 </r>
       <r>   -4.6527    1.0000 </r>
       <r>   -4.6331    1.0000 </r>
       <r>   -4.5838    1.0000 </r>
       <r>   -4.4621    1.0000 </r>
       <r>   -4.4523    1.0000 </r>
       <r>   -4.4257    1.0000 </r>
       <r>   -4.3313    1.0000 </r>
       <r>   -4.3131    1.0000 </r>
       <r>   -4.2012    1.0000 </r>
       <r>   -4.1844    1.0000 </r>
       <r>   -4.1594    1.0000 </r>
       <r>   -4.1101    1.0000 </r>
       <r>   -4.0578    1.0000 </r>
       <r>   -4.0397    1.0000 </r>
       <r>   -3.9535    1.0000 </r>
       <r>   -3.9063    1.0000 </r>
       <r>   -3.8898    1.0000 </r>
       <r>   -3.8388    1.0000 </r>
       <r>   -3.8170    1.0000 </r>
       <r>   -3.8052    1.0000 </r>
       <r>   -3.7881    1.0000 </r>
       <r>   -3.7188    1.0000 </r>
       <r>   -3.7026    1.0000 </r>
       <r>   -3.6600    1.0000 </r>
       <r>   -3.5758    1.0000 </r>
       <r>   -3.5487    1.0000 </r>
       <r>   -3.5223    1.0000 </r>
       <r>   -3.4915    1.0000 </r>
       <r>   -3.4522    1.0000 </r>
       <r>   -3.4071    1.0000 </r>
       <r>   -3.3749    1.0000 </r>
       <r>   -3.3616    1.0000 </r>
       <r>   -3.3414    1.0000 </r>
       <r>   -3.3340    1.0000 </r>
       <r>   -3.3223    1.0000 </r>
       <r>   -3.2937    1.0000 </r>
       <r>   -3.2725    1.0000 </r>
       <r>   -3.2392    1.0000 </r>
       <r>   -3.2152    1.0000 </r>
       <r>   -3.1682    1.0000 </r>
       <r>   -3.1528    1.0000 </r>
       <r>   -3.1169    1.0000 </r>
       <r>   -3.1060    1.0000 </r>
       <r>   -3.0693    1.0000 </r>
       <r>   -3.0373    1.0000 </r>
       <r>   -3.0159    1.0000 </r>
       <r>   -2.9887    1.0000 </r>
       <r>   -2.9229    1.0000 </r>
       <r>   -2.8740    1.0000 </r>
       <r>   -2.8391    1.0000 </r>
       <r>   -2.8313    1.0000 </r>
       <r>   -2.7886    1.0000 </r>
       <r>   -2.7715    1.0000 </r>
       <r>   -2.7400    1.0000 </r>
       <r>   -2.7107    1.0000 </r>
       <r>   -2.6891    1.0000 </r>
       <r>   -2.6870    1.0000 </r>
       <r>   -2.6704    1.0000 </r>
       <r>   -2.6358    1.0000 </r>
       <r>   -2.5955    1.0000 </r>
       <r>   -2.5757    1.0000 </r>
       <r>   -2.5325    1.0000 </r>
       <r>   -2.5156    1.0000 </r>
       <r>   -2.4763    1.0000 </r>
       <r>   -2.4495    1.0000 </r>
       <r>   -2.4314    1.0000 </r>
       <r>   -2.3285    1.0000 </r>
       <r>   -2.3092    1.0000 </r>
       <r>   -2.2782    1.0000 </r>
       <r>   -2.2634    1.0000 </r>
       <r>   -2.2548    1.0000 </r>
       <r>   -2.1998    1.0000 </r>
       <r>   -2.1904    1.0000 </r>
       <r>   -1.8210    1.0000 </r>
       <r>   -1.2688    1.0006 </r>
       <r>   -0.9442    1.0275 </r>
       <r>   -0.8714    0.9452 </r>
       <r>   -0.5134   -0.0339 </r>
       <r>   -0.4667   -0.0330 </r>
       <r>   -0.0393   -0.0000 </r>
       <r>    0.4798   -0.0000 </r>
       <r>    0.6322   -0.0000 </r>
       <r>    1.0480   -0.0000 </r>
       <r>    1.8410   -0.0000 </r>
       <r>    2.0927   -0.0000 </r>
       <r>    2.5098   -0.0000 </r>
       <r>    3.3184   -0.0000 </r>
       <r>    3.7644   -0.0000 </r>
       <r>    4.1911   -0.0000 </r>
       <r>    4.4447   -0.0000 </r>
       <r>    4.7211    0.0000 </r>
       <r>    4.7848    0.0000 </r>
       <r>    4.9021    0.0000 </r>
       <r>    5.5389    0.0000 </r>
       <r>    5.6567    0.0000 </r>
       <r>    5.7207    0.0000 </r>
      </set>
      <set comment="kpoint 12">
       <r>  -24.4677    1.0000 </r>
       <r>  -10.7859    1.0000 </r>
       <r>   -8.0098    1.0000 </r>
       <r>   -7.6651    1.0000 </r>
       <r>   -7.4244    1.0000 </r>
       <r>   -7.1777    1.0000 </r>
       <r>   -7.1607    1.0000 </r>
       <r>   -6.1906    1.0000 </r>
       <r>   -6.1086    1.0000 </r>
       <r>   -6.0061    1.0000 </r>
       <r>   -5.3277    1.0000 </r>
       <r>   -5.0165    1.0000 </r>
       <r>   -4.9364    1.0000 </r>
       <r>   -4.6853    1.0000 </r>
       <r>   -4.6197    1.0000 </r>
       <r>   -4.5700    1.0000 </r>
       <r>   -4.5539    1.0000 </r>
       <r>   -4.5434    1.0000 </r>
       <r>   -4.4736    1.0000 </r>
       <r>   -4.3748    1.0000 </r>
       <r>   -4.3333    1.0000 </r>
       <r>   -4.3026    1.0000 </r>
       <r>   -4.2762    1.0000 </r>
       <r>   -4.2465    1.0000 </r>
       <r>   -4.2285    1.0000 </r>
       <r>   -4.2029    1.0000 </r>
       <r>   -4.1571    1.0000 </r>
       <r>   -4.1245    1.0000 </r>
       <r>   -4.1027    1.0000 </r>
       <r>   -4.0641    1.0000 </r>
       <r>   -4.0315    1.0000 </r>
       <r>   -4.0082    1.0000 </r>
       <r>   -3.9996    1.0000 </r>
       <r>   -3.9471    1.0000 </r>
       <r>   -3.9031    1.0000 </r>
       <r>   -3.8458    1.0000 </r>
       <r>   -3.8301    1.0000 </r>
       <r>   -3.7855    1.0000 </r>
       <r>   -3.7515    1.0000 </r>
       <r>   -3.7171    1.0000 </r>
       <r>   -3.6669    1.0000 </r>
       <r>   -3.6387    1.0000 </r>
       <r>   -3.6223    1.0000 </r>
       <r>   -3.5924    1.0000 </r>
       <r>   -3.5830    1.0000 </r>
       <r>   -3.5359    1.0000 </r>
       <r>   -3.5206    1.0000 </r>
       <r>   -3.4635    1.0000 </r>
       <r>   -3.4336    1.0000 </r>
       <r>   -3.3739    1.0000 </r>
       <r>   -3.3573    1.0000 </r>
       <r>   -3.3251    1.0000 </r>
       <r>   -3.3211    1.0000 </r>
       <r>   -3.2828    1.0000 </r>
       <r>   -3.2513    1.0000 </r>
       <r>   -3.2299    1.0000 </r>
       <r>   -3.1813    1.0000 </r>
       <r>   -3.1347    1.0000 </r>
       <r>   -3.0717    1.0000 </r>
       <r>   -3.0277    1.0000 </r>
       <r>   -3.0189    1.0000 </r>
       <r>   -2.9594    1.0000 </r>
       <r>   -2.9230    1.0000 </r>
       <r>   -2.9115    1.0000 </r>
       <r>   -2.9008    1.0000 </r>
       <r>   -2.8492    1.0000 </r>
       <r>   -2.8228    1.0000 </r>
       <r>   -2.7938    1.0000 </r>
       <r>   -2.7734    1.0000 </r>
       <r>   -2.7612    1.0000 </r>
       <r>   -2.7307    1.0000 </r>
       <r>   -2.7004    1.0000 </r>
       <r>   -2.6586    1.0000 </r>
       <r>   -2.6266    1.0000 </r>
       <r>   -2.5945    1.0000 </r>
       <r>   -2.5780    1.0000 </r>
       <r>   -2.5596    1.0000 </r>
       <r>   -2.5053    1.0000 </r>
       <r>   -2.4942    1.0000 </r>
       <r>   -2.4856    1.0000 </r>
       <r>   -2.4638    1.0000 </r>
       <r>   -2.4250    1.0000 </r>
       <r>   -2.3882    1.0000 </r>
       <r>   -2.3766    1.0000 </r>
       <r>   -2.3454    1.0000 </r>
       <r>   -2.3192    1.0000 </r>
       <r>   -2.2909    1.0000 </r>
       <r>   -2.2801    1.0000 </r>
       <r>   -2.1394    1.0000 </r>
       <r>   -1.9683    1.0000 </r>
       <r>   -1.7980    1.0000 </r>
       <r>   -1.7440    1.0000 </r>
       <r>   -1.1184    1.0111 </r>
       <r>   -0.5429   -0.0232 </r>
       <r>   -0.1994   -0.0005 </r>
       <r>    0.7385   -0.0000 </r>
       <r>    0.9211   -0.0000 </r>
       <r>    1.2868   -0.0000 </r>
       <r>    1.5244   -0.0000 </r>
       <r>    1.9669   -0.0000 </r>
[...]
        <r>  0.0000  0.0011  0.0000 </r>
       </set>
       <set comment="band 91">
        <r>  0.0063  0.0114  0.0823 </r>
        <r>  0.0140  0.0094  0.0589 </r>
        <r>  0.0041  0.0118  0.0843 </r>
        <r>  0.0228  0.0078  0.0683 </r>
        <r>  0.0073  0.0038  0.0375 </r>
        <r>  0.0017  0.0097  0.0369 </r>
        <r>  0.0026  0.0069  0.0306 </r>
        <r>  0.0057  0.0042  0.0444 </r>
        <r>  0.0018  0.0065  0.0266 </r>
        <r>  0.0075  0.0020  0.0318 </r>
        <r>  0.0014  0.0046  0.0322 </r>
        <r>  0.0010  0.0043  0.0257 </r>
        <r>  0.0114  0.0081  0.0507 </r>
        <r>  0.0066  0.0091  0.0308 </r>
        <r>  0.0149  0.0072  0.0412 </r>
        <r>  0.0049  0.0103  0.0286 </r>
        <r>  0.0004  0.0015  0.0003 </r>
        <r>  0.0000  0.0062  0.0000 </r>
       </set>
       <set comment="band 92">
        <r>  0.0138  0.0061  0.0399 </r>
        <r>  0.0216  0.0046  0.0352 </r>
        <r>  0.0081  0.0069  0.0199 </r>
        <r>  0.0078  0.0072  0.0196 </r>
        <r>  0.0009  0.0031  0.0505 </r>
        <r>  0.0012  0.0036  0.0656 </r>
        <r>  0.0058  0.0067  0.0480 </r>
        <r>  0.0039  0.0099  0.0440 </r>
        <r>  0.0004  0.0053  0.0535 </r>
        <r>  0.0003  0.0051  0.0484 </r>
        <r>  0.0112  0.0066  0.0574 </r>
        <r>  0.0135  0.0053  0.0280 </r>
        <r>  0.0116  0.0079  0.0411 </r>
        <r>  0.0165  0.0089  0.0063 </r>
        <r>  0.0090  0.0082  0.0700 </r>
        <r>  0.0153  0.0090  0.0101 </r>
        <r>  0.0000  0.0054  0.0009 </r>
        <r>  0.0000  0.0239  0.0001 </r>
       </set>
       <set comment="band 93">
        <r>  0.0283  0.0113  0.0269 </r>
        <r>  0.0033  0.0142  0.0238 </r>
        <r>  0.0334  0.0121  0.0296 </r>
        <r>  0.0039  0.0135  0.0311 </r>
        <r>  0.0144  0.0124  0.0268 </r>
        <r>  0.0092  0.0043  0.0447 </r>
        <r>  0.0014  0.0088  0.0193 </r>
        <r>  0.0023  0.0091  0.0340 </r>
        <r>  0.0073  0.0220  0.0151 </r>
        <r>  0.0059  0.0157  0.0346 </r>
        <r>  0.0079  0.0075  0.0372 </r>
        <r>  0.0073  0.0093  0.0741 </r>
        <r>  0.0173  0.0065  0.0295 </r>
        <r>  0.0030  0.0141  0.0334 </r>
        <r>  0.0171  0.0068  0.0329 </r>
        <r>  0.0035  0.0140  0.0452 </r>
        <r>  0.0095  0.0105  0.0007 </r>
        <r>  0.0003  0.0111  0.0000 </r>
       </set>
       <set comment="band 94">
        <r>  0.0070  0.0135  0.0170 </r>
        <r>  0.0223  0.0141  0.0229 </r>
        <r>  0.0070  0.0133  0.0226 </r>
        <r>  0.0270  0.0164  0.0195 </r>
        <r>  0.0068  0.0092  0.0249 </r>
        <r>  0.0285  0.0087  0.0288 </r>
        <r>  0.0108  0.0119  0.0222 </r>
        <r>  0.0004  0.0128  0.0116 </r>
        <r>  0.0118  0.0081  0.0311 </r>
        <r>  0.0011  0.0291  0.0114 </r>
        <r>  0.0009  0.0133  0.0369 </r>
        <r>  0.0050  0.0055  0.0401 </r>
        <r>  0.0099  0.0185  0.0195 </r>
        <r>  0.0163  0.0177  0.0413 </r>
        <r>  0.0079  0.0216  0.0313 </r>
        <r>  0.0158  0.0190  0.0389 </r>
        <r>  0.0069  0.0165  0.0012 </r>
        <r>  0.0004  0.0253  0.0002 </r>
       </set>
       <set comment="band 95">
        <r>  0.0074  0.0133  0.0195 </r>
        <r>  0.0161  0.0157  0.0183 </r>
        <r>  0.0053  0.0114  0.0185 </r>
        <r>  0.0127  0.0132  0.0199 </r>
        <r>  0.0052  0.0111  0.0065 </r>
        <r>  0.0017  0.0120  0.0035 </r>
        <r>  0.0248  0.0044  0.0198 </r>
        <r>  0.0337  0.0017  0.0263 </r>
        <r>  0.0011  0.0096  0.0262 </r>
        <r>  0.0017  0.0055  0.0250 </r>
        <r>  0.0149  0.0103  0.0215 </r>
        <r>  0.0213  0.0223  0.0115 </r>
        <r>  0.0010  0.0161  0.0308 </r>
        <r>  0.0056  0.0380  0.0133 </r>
        <r>  0.0011  0.0146  0.0216 </r>
        <r>  0.0068  0.0392  0.0119 </r>
        <r>  0.0001  0.0457  0.0024 </r>
        <r>  0.0000  0.0718  0.0007 </r>
       </set>
       <set comment="band 96">
        <r>  0.0147  0.0213  0.0123 </r>
        <r>  0.0042  0.0075  0.0147 </r>
        <r>  0.0150  0.0244  0.0113 </r>
        <r>  0.0031  0.0082  0.0135 </r>
        <r>  0.0208  0.0108  0.0167 </r>
        <r>  0.0106  0.0143  0.0060 </r>
        <r>  0.0152  0.0137  0.0132 </r>
        <r>  0.0081  0.0148  0.0099 </r>
        <r>  0.0158  0.0114  0.0189 </r>
        <r>  0.0010  0.0110  0.0179 </r>
        <r>  0.0070  0.0171  0.0187 </r>
        <r>  0.0073  0.0200  0.0129 </r>
        <r>  0.0006  0.0246  0.0218 </r>
        <r>  0.0076  0.0178  0.0344 </r>
        <r>  0.0010  0.0251  0.0175 </r>
        <r>  0.0075  0.0157  0.0328 </r>
        <r>  0.0035  0.0664  0.0020 </r>
        <r>  0.0001  0.0665  0.0012 </r>
       </set>
       <set comment="band 97">
        <r>  0.0032  0.0184  0.0145 </r>
        <r>  0.0051  0.0092  0.0099 </r>
        <r>  0.0033  0.0156  0.0135 </r>
        <r>  0.0066  0.0079  0.0106 </r>
        <r>  0.0274  0.0219  0.0143 </r>
        <r>  0.0016  0.0221  0.0278 </r>
        <r>  0.0048  0.0165  0.0260 </r>
        <r>  0.0154  0.0162  0.0169 </r>
        <r>  0.0078  0.0191  0.0438 </r>
        <r>  0.0365  0.0291  0.0208 </r>
        <r>  0.0216  0.0270  0.0223 </r>
        <r>  0.0075  0.0227  0.0308 </r>
        <r>  0.0265  0.0267  0.0198 </r>
        <r>  0.0062  0.0202  0.0300 </r>
        <r>  0.0257  0.0266  0.0190 </r>
        <r>  0.0057  0.0203  0.0274 </r>
        <r>  0.0033  0.0102  0.0002 </r>
        <r>  0.0000  0.0056  0.0002 </r>
       </set>
       <set comment="band 98">
        <r>  0.0128  0.0196  0.0179 </r>
        <r>  0.0033  0.0337  0.0265 </r>
        <r>  0.0144  0.0187  0.0169 </r>
        <r>  0.0033  0.0306  0.0259 </r>
        <r>  0.0045  0.0358  0.0296 </r>
        <r>  0.0261  0.0442  0.0237 </r>
        <r>  0.0131  0.0296  0.0273 </r>
        <r>  0.0110  0.0276  0.0347 </r>
        <r>  0.0173  0.0238  0.0112 </r>
        <r>  0.0071  0.0073  0.0190 </r>
        <r>  0.0049  0.0144  0.0119 </r>
        <r>  0.0045  0.0117  0.0134 </r>
        <r>  0.0120  0.0102  0.0070 </r>
        <r>  0.0044  0.0098  0.0143 </r>
        <r>  0.0116  0.0101  0.0072 </r>
        <r>  0.0039  0.0095  0.0160 </r>
        <r>  0.0055  0.0357  0.0008 </r>
        <r>  0.0001  0.0249  0.0007 </r>
       </set>
       <set comment="band 99">
        <r>  0.0002  0.0275  0.0171 </r>
        <r>  0.0061  0.0258  0.0122 </r>
        <r>  0.0002  0.0262  0.0205 </r>
        <r>  0.0057  0.0275  0.0159 </r>
        <r>  0.0021  0.0083  0.0217 </r>
        <r>  0.0018  0.0102  0.0197 </r>
        <r>  0.0093  0.0376  0.0092 </r>
        <r>  0.0052  0.0296  0.0104 </r>
        <r>  0.0019  0.0057  0.0114 </r>
        <r>  0.0005  0.0086  0.0075 </r>
        <r>  0.0096  0.0144  0.0082 </r>
        <r>  0.0107  0.0258  0.0130 </r>
        <r>  0.0104  0.0094  0.0045 </r>
        <r>  0.0004  0.0279  0.0226 </r>
        <r>  0.0144  0.0060  0.0044 </r>
        <r>  0.0001  0.0288  0.0258 </r>
        <r>  0.0003  0.0906  0.0015 </r>
        <r>  0.0000  0.0608  0.0019 </r>
       </set>
       <set comment="band 100">
        <r>  0.0056  0.0240  0.0237 </r>
        <r>  0.0089  0.0437  0.0195 </r>
        <r>  0.0049  0.0231  0.0242 </r>
        <r>  0.0099  0.0454  0.0160 </r>
        <r>  0.0046  0.0398  0.0132 </r>
        <r>  0.0040  0.0240  0.0114 </r>
        <r>  0.0033  0.0084  0.0176 </r>
        <r>  0.0053  0.0285  0.0176 </r>
        <r>  0.0070  0.0228  0.0104 </r>
        <r>  0.0079  0.0375  0.0159 </r>
        <r>  0.0029  0.0262  0.0178 </r>
        <r>  0.0066  0.0135  0.0173 </r>
        <r>  0.0040  0.0318  0.0152 </r>
        <r>  0.0132  0.0242  0.0186 </r>
        <r>  0.0047  0.0281  0.0182 </r>
        <r>  0.0157  0.0224  0.0195 </r>
        <r>  0.0025  0.0025  0.0007 </r>
        <r>  0.0006  0.0030  0.0000 </r>
       </set>
       <set comment="band 101">
        <r>  0.0067  0.0270  0.0177 </r>
        <r>  0.0064  0.0292  0.0170 </r>
        <r>  0.0047  0.0278  0.0157 </r>
        <r>  0.0046  0.0339  0.0158 </r>
        <r>  0.0035  0.0102  0.0100 </r>
        <r>  0.0033  0.0269  0.0093 </r>
        <r>  0.0046  0.0156  0.0096 </r>
        <r>  0.0044  0.0130  0.0120 </r>
        <r>  0.0104  0.0300  0.0125 </r>
        <r>  0.0106  0.0306  0.0104 </r>
        <r>  0.0057  0.0247  0.0187 </r>
        <r>  0.0056  0.0217  0.0165 </r>
        <r>  0.0095  0.0216  0.0124 </r>
        <r>  0.0045  0.0152  0.0117 </r>
        <r>  0.0117  0.0193  0.0137 </r>
        <r>  0.0062  0.0113  0.0137 </r>
        <r>  0.0006  0.0867  0.0008 </r>
        <r>  0.0001  0.0395  0.0020 </r>
       </set>
       <set comment="band 102">
        <r>  0.0011  0.0407  0.0146 </r>
        <r>  0.0017  0.0207  0.0137 </r>
        <r>  0.0016  0.0492  0.0102 </r>
        <r>  0.0022  0.0205  0.0175 </r>
        <r>  0.0003  0.0173  0.0103 </r>
        <r>  0.0009  0.0195  0.0161 </r>
        <r>  0.0007  0.0439  0.0104 </r>
        <r>  0.0037  0.0072  0.0078 </r>
        <r>  0.0047  0.0196  0.0098 </r>
        <r>  0.0059  0.0336  0.0166 </r>
        <r>  0.0010  0.0439  0.0122 </r>
        <r>  0.0007  0.0152  0.0159 </r>
        <r>  0.0000  0.0347  0.0117 </r>
        <r>  0.0060  0.0270  0.0299 </r>
        <r>  0.0009  0.0466  0.0138 </r>
        <r>  0.0063  0.0374  0.0206 </r>
        <r>  0.0036  0.0269  0.0002 </r>
        <r>  0.0000  0.0063  0.0006 </r>
       </set>
       <set comment="band 103">
        <r>  0.0001  0.0154  0.0054 </r>
        <r>  0.0011  0.0193  0.0065 </r>
        <r>  0.0004  0.0154  0.0077 </r>
        <r>  0.0013  0.0164  0.0068 </r>
        <r>  0.0005  0.0147  0.0068 </r>
        <r>  0.0011  0.0066  0.0105 </r>
        <r>  0.0034  0.0056  0.0067 </r>
        <r>  0.0012  0.0356  0.0040 </r>
        <r>  0.0007  0.0160  0.0095 </r>
        <r>  0.0054  0.0091  0.0124 </r>
        <r>  0.0045  0.0135  0.0108 </r>
        <r>  0.0024  0.0318  0.0059 </r>
        <r>  0.0293  0.0433  0.0142 </r>
        <r>  0.0053  0.0074  0.0274 </r>
        <r>  0.0292  0.0424  0.0094 </r>
        <r>  0.0065  0.0049  0.0305 </r>
        <r>  0.0046  0.0830  0.0004 </r>
        <r>  0.0000  0.0167  0.0021 </r>
       </set>
       <set comment="band 104">
        <r>  0.0003  0.0367  0.0141 </r>
        <r>  0.0011  0.0386  0.0169 </r>
        <r>  0.0006  0.0360  0.0169 </r>
        <r>  0.0010  0.0297  0.0138 </r>
        <r>  0.0126  0.0498  0.0222 </r>
        <r>  0.0227  0.0365  0.0167 </r>
        <r>  0.0193  0.0390  0.0169 </r>
        <r>  0.0143  0.0371  0.0241 </r>
        <r>  0.0000  0.0361  0.0204 </r>
        <r>  0.0057  0.0252  0.0169 </r>
        <r>  0.0031  0.0249  0.0194 </r>
        <r>  0.0004  0.0420  0.0172 </r>
        <r>  0.0050  0.0238  0.0090 </r>
        <r>  0.0005  0.0086  0.0113 </r>
        <r>  0.0010  0.0151  0.0125 </r>
        <r>  0.0023  0.0092  0.0078 </r>
        <r>  0.0037  0.0260  0.0001 </r>
        <r>  0.0000  0.0063  0.0007 </r>
       </set>
       <set comment="band 105">
        <r>  0.0123  0.0162  0.0140 </r>
        <r>  0.0126  0.0126  0.0128 </r>
        <r>  0.0124  0.0185  0.0133 </r>
        <r>  0.0115  0.0184  0.0154 </r>
        <r>  0.0018  0.0594  0.0326 </r>
        <r>  0.0008  0.0675  0.0340 </r>
        <r>  0.0007  0.0587  0.0389 </r>
        <r>  0.0017  0.0529  0.0374 </r>
        <r>  0.0364  0.0176  0.0137 </r>
        <r>  0.0268  0.0178  0.0190 </r>
        <r>  0.0282  0.0263  0.0171 </r>
        <r>  0.0386  0.0217  0.0122 </r>
        <r>  0.0047  0.0065  0.0072 </r>
        <r>  0.0026  0.0075  0.0051 </r>
        <r>  0.0045  0.0166  0.0061 </r>
        <r>  0.0032  0.0091  0.0058 </r>
        <r>  0.0004  0.0099  0.0001 </r>
        <r>  0.0000  0.0025  0.0003 </r>
       </set>
       <set comment="band 106">
        <r>  0.0047  0.0175  0.0058 </r>
        <r>  0.0024  0.0056  0.0091 </r>
        <r>  0.0048  0.0118  0.0040 </r>
        <r>  0.0029  0.0120  0.0045 </r>
        <r>  0.0149  0.0124  0.0097 </r>
        <r>  0.0050  0.0042  0.0119 </r>
        <r>  0.0081  0.0243  0.0058 </r>
        <r>  0.0100  0.0343  0.0059 </r>
        <r>  0.0081  0.0756  0.0133 </r>
        <r>  0.0015  0.0461  0.0176 </r>
        <r>  0.0024  0.0315  0.0279 </r>
        <r>  0.0072  0.0217  0.0286 </r>
        <r>  0.0047  0.0487  0.0294 </r>
        <r>  0.0103  0.0434  0.0229 </r>
        <r>  0.0039  0.0453  0.0217 </r>
        <r>  0.0121  0.0308  0.0179 </r>
        <r>  0.0037  0.0248  0.0006 </r>
        <r>  0.0004  0.0066  0.0007 </r>
       </set>
       <set comment="band 107">
        <r>  0.0045  0.0249  0.0089 </r>
        <r>  0.0009  0.0296  0.0094 </r>
        <r>  0.0018  0.0166  0.0159 </r>
        <r>  0.0059  0.0186  0.0141 </r>
        <r>  0.0238  0.0170  0.0089 </r>
        <r>  0.0328  0.0167  0.0066 </r>
        <r>  0.0105  0.0122  0.0134 </r>
        <r>  0.0165  0.0033  0.0121 </r>
        <r>  0.0024  0.0086  0.0261 </r>
        <r>  0.0137  0.0138  0.0313 </r>
        <r>  0.0002  0.0235  0.0056 </r>
        <r>  0.0022  0.0224  0.0040 </r>
        <r>  0.0013  0.0236  0.0131 </r>
        <r>  0.0275  0.0154  0.0175 </r>
        <r>  0.0045  0.0366  0.0178 </r>
        <r>  0.0086  0.0296  0.0182 </r>
        <r>  0.0088  0.0170  0.0004 </r>
        <r>  0.0005  0.0029  0.0005 </r>
       </set>
       <set comment="band 108">
        <r>  0.0163  0.0219  0.0096 </r>
        <r>  0.0160  0.0263  0.0095 </r>
        <r>  0.0156  0.0276  0.0093 </r>
        <r>  0.0172  0.0242  0.0089 </r>
        <r>  0.0003  0.0285  0.0199 </r>
        <r>  0.0041  0.0233  0.0223 </r>
        <r>  0.0045  0.0236  0.0231 </r>
        <r>  0.0005  0.0270  0.0210 </r>
        <r>  0.0013  0.0309  0.0200 </r>
        <r>  0.0021  0.0254  0.0232 </r>
        <r>  0.0018  0.0270  0.0232 </r>
        <r>  0.0021  0.0336  0.0204 </r>
        <r>  0.0185  0.0267  0.0108 </r>
        <r>  0.0125  0.0276  0.0101 </r>
        <r>  0.0191  0.0297  0.0100 </r>
        <r>  0.0141  0.0287  0.0082 </r>
        <r>  0.0007  0.0103  0.0003 </r>
        <r>  0.0005  0.0052  0.0003 </r>
       </set>
       <set comment="band 109">
        <r>  0.0027  0.0077  0.0144 </r>
        <r>  0.0101  0.0226  0.0102 </r>
        <r>  0.0034  0.0058  0.0113 </r>
        <r>  0.0068  0.0268  0.0101 </r>
        <r>  0.0210  0.0035  0.0053 </r>
        <r>  0.0061  0.0026  0.0126 </r>
        <r>  0.0162  0.0044  0.0035 </r>
        <r>  0.0044  0.0031  0.0061 </r>
        <r>  0.0152  0.0015  0.0065 </r>
        <r>  0.0033  0.0026  0.0099 </r>
        <r>  0.0153  0.0038  0.0045 </r>
        <r>  0.0030  0.0081  0.0067 </r>
        <r>  0.0024  0.0098  0.0147 </r>
        <r>  0.0041  0.0249  0.0099 </r>
        <r>  0.0007  0.0141  0.0110 </r>
        <r>  0.0062  0.0231  0.0110 </r>
        <r>  0.0002  0.0073  0.0017 </r>
        <r>  0.0047  0.0034  0.0003 </r>
       </set>
       <set comment="band 110">
        <r>  0.0056  0.0107  0.0056 </r>
        <r>  0.0061  0.0055  0.0081 </r>
        <r>  0.0131  0.0113  0.0047 </r>
        <r>  0.0014  0.0076  0.0100 </r>
        <r>  0.0022  0.0045  0.0043 </r>
        <r>  0.0021  0.0091  0.0039 </r>
        <r>  0.0046  0.0029  0.0095 </r>
        <r>  0.0148  0.0026  0.0098 </r>
        <r>  0.0018  0.0051  0.0062 </r>
        <r>  0.0034  0.0082  0.0030 </r>
        <r>  0.0049  0.0050  0.0085 </r>
        <r>  0.0118  0.0099  0.0081 </r>
        <r>  0.0030  0.0131  0.0056 </r>
        <r>  0.0014  0.0074  0.0057 </r>
        <r>  0.0038  0.0136  0.0059 </r>
        <r>  0.0042  0.0094  0.0066 </r>
        <r>  0.0000  0.0100  0.0003 </r>
        <r>  0.0006  0.0062  0.0005 </r>
       </set>
       <set comment="band 111">
        <r>  0.0133  0.0282  0.0226 </r>
        <r>  0.0131  0.0260  0.0216 </r>
        <r>  0.0042  0.0389  0.0166 </r>
        <r>  0.0124  0.0368  0.0161 </r>
        <r>  0.0021  0.0093  0.0131 </r>
        <r>  0.0033  0.0331  0.0093 </r>
        <r>  0.0069  0.0030  0.0061 </r>
        <r>  0.0082  0.0053  0.0038 </r>
        <r>  0.0046  0.0097  0.0096 </r>
        <r>  0.0020  0.0130  0.0121 </r>
        <r>  0.0142  0.0189  0.0032 </r>
        <r>  0.0112  0.0227  0.0037 </r>
        <r>  0.0067  0.0084  0.0071 </r>
        <r>  0.0038  0.0032  0.0084 </r>
        <r>  0.0048  0.0103  0.0079 </r>
        <r>  0.0011  0.0055  0.0078 </r>
        <r>  0.0082  0.0074  0.0001 </r>
        <r>  0.0000  0.0029  0.0002 </r>
       </set>
       <set comment="band 112">
        <r>  0.0026  0.0118  0.0042 </r>
        <r>  0.0021  0.0085  0.0048 </r>
        <r>  0.0016  0.0075  0.0043 </r>
        <r>  0.0009  0.0074  0.0034 </r>
        <r>  0.0001  0.0178  0.0015 </r>
        <r>  0.0010  0.0022  0.0028 </r>
        <r>  0.0009  0.0013  0.0019 </r>
        <r>  0.0012  0.0013  0.0026 </r>
        <r>  0.0006  0.0039  0.0049 </r>
        <r>  0.0021  0.0050  0.0029 </r>
        <r>  0.0005  0.0102  0.0015 </r>
        <r>  0.0048  0.0034  0.0020 </r>
        <r>  0.0037  0.0029  0.0062 </r>
        <r>  0.0035  0.0018  0.0054 </r>
        <r>  0.0005  0.0034  0.0023 </r>
        <r>  0.0008  0.0057  0.0021 </r>
        <r>  0.0002  0.0030  0.0010 </r>
        <r>  0.0082  0.0073  0.0001 </r>
       </set>
      </set>
     </set>
    </set>
   </array>
  </projected>
 </calculation>
 <structure name="finalpos" >
  <crystal>
   <varray name="basis" >
    <v>       5.19996363       0.00000000       0.00000000 </v>
    <v>       2.59998182       4.50330060       0.00000000 </v>
    <v>       0.00000000       0.00000000      26.36862879 </v>
   </varray>
   <i name="volume">    617.47416323 </i>
   <varray name="rec_basis" >
    <v>       0.19230904      -0.11102967       0.00000000 </v>
    <v>       0.00000000       0.22205935       0.00000000 </v>
    <v>       0.00000000       0.00000000       0.03792385 </v>
   </varray>
  </crystal>
  <varray name="positions" >
   <v>       0.00000000       0.00000000       0.37923853 </v>
   <v>       0.50000000       0.00000000       0.37923853 </v>
   <v>       0.00000000       0.50000000       0.37923853 </v>
   <v>       0.50000000       0.50000000       0.37923853 </v>
   <v>       0.16666667       0.16666667       0.45974618 </v>
   <v>       0.66666667       0.16666667       0.45974618 </v>
   <v>       0.16666667       0.66666667       0.45974618 </v>
   <v>       0.66666667       0.66666667       0.45974618 </v>
   <v>       0.83248879       0.33307098       0.53916031 </v>
   <v>       0.33509512       0.33243379       0.53844507 </v>
   <v>       0.83250168       0.83441651       0.53915820 </v>
   <v>       0.33691317       0.83153294       0.54112155 </v>
   <v>       0.00202217       0.99898064       0.61816427 </v>
   <v>       0.49530183       0.00298692       0.62200661 </v>
   <v>       0.98866076       0.50566591       0.61725102 </v>
   <v>       0.49524931       0.50174250       0.62200129 </v>
   <v>       0.50443265       0.24779035       0.67988818 </v>
   <v>       0.50362631       0.24828784       0.72461490 </v>
  </varray>
  <varray name="selective"  type="logical" >
   <v type="logical" >  F  F  F </v>
   <v type="logical" >  F  F  F </v>
   <v type="logical" >  F  F  F </v>
   <v type="logical" >  F  F  F </v>
   <v type="logical" >  F  F  F </v>
   <v type="logical" >  F  F  F </v>
   <v type="logical" >  F  F  F </v>
   <v type="logical" >  F  F  F </v>
   <v type="logical" >  T  T  T </v>
   <v type="logical" >  T  T  T </v>
   <v type="logical" >  T  T  T </v>
   <v type="logical" >  T  T  T </v>
   <v type="logical" >  T  T  T </v>
   <v type="logical" >  T  T  T </v>
   <v type="logical" >  T  T  T </v>
   <v type="logical" >  T  T  T </v>
   <v type="logical" >  T  T  T </v>
   <v type="logical" >  T  T  T </v>
  </varray>
  <nose>
   <v>      -3.00000000       0.00000000       0.00010000       0.00010000 </v>
  </nose>
 </structure>
</modeling>
