unknown system                          
           1
     5.199964    0.000000    0.000000
     2.599982    4.503301    0.000000
     0.000000    0.000000   26.368629
   Cu   C    O 
  16   1   1
Direct configuration=     1
   0.00000000  0.00000000  0.37923853
   0.50000000  0.00000000  0.37923853
   0.00000000  0.50000000  0.37923853
   0.50000000  0.50000000  0.37923853
   0.16666667  0.16666667  0.45974618
   0.66666667  0.16666667  0.45974618
   0.16666667  0.66666667  0.45974618
   0.66666667  0.66666667  0.45974618
   0.83248879  0.33307098  0.53916031
   0.33509512  0.33243379  0.53844507
   0.83250168  0.83441651  0.53915820
   0.33691317  0.83153294  0.54112155
   0.00202217  0.99898064  0.61816427
   0.49530183  0.00298692  0.62200661
   0.98866076  0.50566591  0.61725102
   0.49524931  0.50174250  0.62200129
   0.50443265  0.24779035  0.67988818
   0.50362631  0.24828784  0.72461490
