  18  18   1   0
  0.4124378E+02  0.5643844E-09  0.5643844E-09  0.2691227E-08  0.5000000E-15
  1.000000000000000E-004
  CAR 
 unknown system                          
      7.91314496    -24.69769114  301     -0.10367031      1.00000000
    -24.698  0.0000E+00  0.0000E+00
    -24.589  0.0000E+00  0.0000E+00
    -24.480  0.0000E+00  0.0000E+00
    -24.372 -0.1532E-28 -0.1666E-29
    -24.263 -0.9572E-25 -0.1041E-25
    -24.154 -0.3296E-21 -0.3584E-22
    -24.045 -0.6250E-18 -0.6798E-19
    -23.937 -0.6521E-15 -0.7096E-16
    -23.828 -0.3623E-12 -0.3946E-13
    -23.719 -0.1131E-09 -0.1233E-10
    -23.611 -0.1926E-07 -0.2106E-08
    -23.502 -0.1779E-05 -0.1955E-06
    -23.393 -0.8837E-04 -0.9802E-05
    -23.285 -0.2321E-02 -0.2621E-03
    -23.176 -0.3119E-01 -0.3652E-02
    -23.067 -0.1969E+00 -0.2505E-01
    -22.958 -0.4043E+00 -0.6901E-01
    -22.850  0.9949E+00  0.3914E-01
    -22.741  0.5488E+01  0.6357E+00
    -22.632  0.8094E+01  0.1516E+01
    -22.524  0.4550E+01  0.2010E+01
    -22.415  0.4853E+00  0.2063E+01
    -22.306 -0.4074E+00  0.2019E+01
    -22.198 -0.1491E+00  0.2002E+01
    -22.089 -0.2027E-01  0.2000E+01
    -21.980 -0.1326E-02  0.2000E+01
    -21.871 -0.4475E-04  0.2000E+01
    -21.763 -0.8019E-06  0.2000E+01
    -21.654 -0.7741E-08  0.2000E+01
    -21.545 -0.4059E-10  0.2000E+01
    -21.437 -0.1159E-12  0.2000E+01
    -21.328  0.0000E+00  0.2000E+01
    -21.219  0.0000E+00  0.2000E+01
    -21.110  0.0000E+00  0.2000E+01
    -21.002  0.0000E+00  0.2000E+01
    -20.893  0.0000E+00  0.2000E+01
    -20.784  0.0000E+00  0.2000E+01
    -20.676  0.0000E+00  0.2000E+01
    -20.567  0.0000E+00  0.2000E+01
    -20.458  0.0000E+00  0.2000E+01
    -20.350  0.0000E+00  0.2000E+01
    -20.241  0.0000E+00  0.2000E+01
    -20.132  0.0000E+00  0.2000E+01
    -20.023  0.0000E+00  0.2000E+01
    -19.915  0.0000E+00  0.2000E+01
    -19.806  0.0000E+00  0.2000E+01
    -19.697  0.0000E+00  0.2000E+01
    -19.589  0.0000E+00  0.2000E+01
    -19.480  0.0000E+00  0.2000E+01
    -19.371  0.0000E+00  0.2000E+01
    -19.263  0.0000E+00  0.2000E+01
    -19.154  0.0000E+00  0.2000E+01
    -19.045  0.0000E+00  0.2000E+01
    -18.936  0.0000E+00  0.2000E+01
    -18.828  0.0000E+00  0.2000E+01
    -18.719  0.0000E+00  0.2000E+01
    -18.610  0.0000E+00  0.2000E+01
    -18.502  0.0000E+00  0.2000E+01
    -18.393  0.0000E+00  0.2000E+01
    -18.284  0.0000E+00  0.2000E+01
    -18.176  0.0000E+00  0.2000E+01
    -18.067  0.0000E+00  0.2000E+01
    -17.958  0.0000E+00  0.2000E+01
    -17.849  0.0000E+00  0.2000E+01
    -17.741  0.0000E+00  0.2000E+01
    -17.632  0.0000E+00  0.2000E+01
    -17.523  0.0000E+00  0.2000E+01
    -17.415  0.0000E+00  0.2000E+01
    -17.306  0.0000E+00  0.2000E+01
    -17.197  0.0000E+00  0.2000E+01
    -17.088  0.0000E+00  0.2000E+01
    -16.980  0.0000E+00  0.2000E+01
    -16.871  0.0000E+00  0.2000E+01
    -16.762  0.0000E+00  0.2000E+01
    -16.654  0.0000E+00  0.2000E+01
    -16.545  0.0000E+00  0.2000E+01
    -16.436  0.0000E+00  0.2000E+01
    -16.328  0.0000E+00  0.2000E+01
    -16.219  0.0000E+00  0.2000E+01
    -16.110  0.0000E+00  0.2000E+01
    -16.001  0.0000E+00  0.2000E+01
    -15.893  0.0000E+00  0.2000E+01
    -15.784  0.0000E+00  0.2000E+01
    -15.675  0.0000E+00  0.2000E+01
    -15.567  0.0000E+00  0.2000E+01
    -15.458  0.0000E+00  0.2000E+01
    -15.349  0.0000E+00  0.2000E+01
    -15.241  0.0000E+00  0.2000E+01
    -15.132  0.0000E+00  0.2000E+01
    -15.023  0.0000E+00  0.2000E+01
    -14.914  0.0000E+00  0.2000E+01
    -14.806  0.0000E+00  0.2000E+01
    -14.697  0.0000E+00  0.2000E+01
    -14.588  0.0000E+00  0.2000E+01
    -14.480  0.0000E+00  0.2000E+01
    -14.371  0.0000E+00  0.2000E+01
    -14.262  0.0000E+00  0.2000E+01
    -14.154  0.0000E+00  0.2000E+01
    -14.045  0.0000E+00  0.2000E+01
    -13.936  0.0000E+00  0.2000E+01
    -13.827  0.0000E+00  0.2000E+01
    -13.719  0.0000E+00  0.2000E+01
    -13.610  0.0000E+00  0.2000E+01
    -13.501  0.0000E+00  0.2000E+01
    -13.393  0.0000E+00  0.2000E+01
    -13.284  0.0000E+00  0.2000E+01
    -13.175  0.0000E+00  0.2000E+01
    -13.066  0.0000E+00  0.2000E+01
    -12.958  0.0000E+00  0.2000E+01
    -12.849  0.0000E+00  0.2000E+01
    -12.740  0.0000E+00  0.2000E+01
    -12.632  0.0000E+00  0.2000E+01
    -12.523  0.0000E+00  0.2000E+01
    -12.414  0.0000E+00  0.2000E+01
    -12.306  0.0000E+00  0.2000E+01
    -12.197 -0.6176E-28  0.2000E+01
    -12.088 -0.2868E-24  0.2000E+01
    -11.979 -0.7354E-21  0.2000E+01
    -11.871 -0.1043E-17  0.2000E+01
    -11.762 -0.7779E-15  0.2000E+01
    -11.653 -0.3439E-12  0.2000E+01
    -11.545 -0.8228E-10  0.2000E+01
    -11.436 -0.1091E-07  0.2000E+01
    -11.327 -0.8016E-06  0.2000E+01
    -11.219 -0.3269E-04  0.2000E+01
    -11.110 -0.7374E-03  0.2000E+01
    -11.001 -0.9096E-02  0.1999E+01
    -10.892 -0.5892E-01  0.1993E+01
    -10.784 -0.1704E+00  0.1974E+01
    -10.675  0.2075E-01  0.1976E+01
    -10.566  0.1490E+01  0.2138E+01
    -10.458  0.4318E+01  0.2608E+01
    -10.349  0.6229E+01  0.3285E+01
    -10.240  0.4982E+01  0.3826E+01
    -10.132  0.1881E+01  0.4031E+01
    -10.023  0.1252E-01  0.4032E+01
     -9.914 -0.2191E+00  0.4008E+01
     -9.805 -0.6708E-01  0.4001E+01
     -9.697 -0.8718E-02  0.4000E+01
     -9.588 -0.1049E-02  0.4000E+01
     -9.479 -0.4230E-02  0.3999E+01
     -9.371 -0.1512E-01  0.3998E+01
     -9.262 -0.1343E-02  0.3998E+01
     -9.153  0.1079E+00  0.4009E+01
     -9.044  0.2159E+00  0.4033E+01
     -8.936  0.3363E+00  0.4069E+01
     -8.827  0.1073E+01  0.4186E+01
     -8.718  0.1910E+01  0.4394E+01
     -8.610  0.1375E+01  0.4543E+01
     -8.501  0.2210E+00  0.4567E+01
     -8.392 -0.1603E+00  0.4550E+01
     -8.284  0.4434E+00  0.4598E+01
     -8.175  0.1563E+01  0.4768E+01
     -8.066  0.1995E+01  0.4985E+01
     -7.957  0.1988E+01  0.5201E+01
     -7.849  0.2027E+01  0.5421E+01
     -7.740  0.1294E+01  0.5562E+01
     -7.631  0.8169E+00  0.5651E+01
     -7.523  0.1441E+01  0.5807E+01
     -7.414  0.1646E+01  0.5986E+01
     -7.305  0.1807E+01  0.6183E+01
     -7.197  0.3842E+01  0.6600E+01
     -7.088  0.6383E+01  0.7294E+01
     -6.979  0.7126E+01  0.8069E+01
     -6.870  0.6715E+01  0.8799E+01
     -6.762  0.7361E+01  0.9599E+01
     -6.653  0.9689E+01  0.1065E+02
     -6.544  0.1162E+02  0.1192E+02
     -6.436  0.1275E+02  0.1330E+02
     -6.327  0.1511E+02  0.1494E+02
     -6.218  0.1785E+02  0.1688E+02
     -6.110  0.1827E+02  0.1887E+02
     -6.001  0.1616E+02  0.2063E+02
     -5.892  0.1324E+02  0.2207E+02
     -5.783  0.1290E+02  0.2347E+02
     -5.675  0.1870E+02  0.2550E+02
     -5.566  0.2485E+02  0.2820E+02
     -5.457  0.2355E+02  0.3076E+02
     -5.349  0.2104E+02  0.3305E+02
     -5.240  0.2281E+02  0.3553E+02
     -5.131  0.2434E+02  0.3817E+02
     -5.022  0.2220E+02  0.4059E+02
     -4.914  0.1772E+02  0.4251E+02
     -4.805  0.1472E+02  0.4411E+02
     -4.696  0.1690E+02  0.4595E+02
     -4.588  0.2132E+02  0.4827E+02
     -4.479  0.2333E+02  0.5080E+02
     -4.370  0.2366E+02  0.5338E+02
     -4.262  0.2287E+02  0.5586E+02
     -4.153  0.2065E+02  0.5811E+02
     -4.044  0.1807E+02  0.6007E+02
     -3.935  0.1741E+02  0.6196E+02
     -3.827  0.2068E+02  0.6421E+02
     -3.718  0.2761E+02  0.6721E+02
     -3.609  0.3403E+02  0.7091E+02
     -3.501  0.3512E+02  0.7473E+02
     -3.392  0.3207E+02  0.7822E+02
     -3.283  0.3159E+02  0.8165E+02
     -3.175  0.3378E+02  0.8532E+02
     -3.066  0.3343E+02  0.8896E+02
     -2.957  0.3357E+02  0.9260E+02
     -2.848  0.3638E+02  0.9656E+02
     -2.740  0.3546E+02  0.1004E+03
     -2.631  0.2959E+02  0.1036E+03
     -2.522  0.2404E+02  0.1062E+03
     -2.414  0.2172E+02  0.1086E+03
     -2.305  0.2364E+02  0.1112E+03
     -2.196  0.2829E+02  0.1143E+03
     -2.088  0.3078E+02  0.1176E+03
     -1.979  0.2698E+02  0.1205E+03
     -1.870  0.2076E+02  0.1228E+03
     -1.761  0.1839E+02  0.1248E+03
     -1.653  0.1990E+02  0.1269E+03
     -1.544  0.2414E+02  0.1296E+03
     -1.435  0.2911E+02  0.1327E+03
     -1.327  0.3279E+02  0.1363E+03
     -1.218  0.3507E+02  0.1401E+03
     -1.109  0.3373E+02  0.1438E+03
     -1.000  0.2701E+02  0.1467E+03
     -0.892  0.1999E+02  0.1489E+03
     -0.783  0.1817E+02  0.1509E+03
     -0.674  0.1948E+02  0.1530E+03
     -0.566  0.2310E+02  0.1555E+03
     -0.457  0.3005E+02  0.1588E+03
     -0.348  0.3385E+02  0.1624E+03
     -0.240  0.3177E+02  0.1659E+03
     -0.131  0.3030E+02  0.1692E+03
     -0.022  0.2914E+02  0.1724E+03
      0.087  0.2653E+02  0.1752E+03
      0.195  0.2449E+02  0.1779E+03
      0.304  0.1966E+02  0.1800E+03
      0.413  0.1048E+02  0.1812E+03
      0.521  0.2594E+01  0.1815E+03
      0.630  0.1493E+00  0.1815E+03
      0.739  0.1339E+01  0.1816E+03
      0.847  0.3229E+01  0.1820E+03
      0.956  0.4982E+01  0.1825E+03
      1.065  0.6194E+01  0.1832E+03
      1.174  0.5678E+01  0.1838E+03
      1.282  0.4779E+01  0.1843E+03
      1.391  0.5035E+01  0.1849E+03
      1.500  0.4948E+01  0.1854E+03
      1.608  0.4990E+01  0.1859E+03
      1.717  0.5961E+01  0.1866E+03
      1.826  0.7431E+01  0.1874E+03
      1.934  0.9118E+01  0.1884E+03
      2.043  0.7997E+01  0.1893E+03
      2.152  0.4179E+01  0.1897E+03
      2.261  0.2465E+01  0.1900E+03
      2.369  0.4037E+01  0.1904E+03
      2.478  0.5930E+01  0.1911E+03
      2.587  0.6257E+01  0.1918E+03
      2.695  0.5942E+01  0.1924E+03
      2.804  0.6361E+01  0.1931E+03
      2.913  0.6430E+01  0.1938E+03
      3.022  0.5481E+01  0.1944E+03
      3.130  0.4618E+01  0.1949E+03
      3.239  0.4493E+01  0.1954E+03
      3.348  0.4602E+01  0.1959E+03
      3.456  0.4910E+01  0.1964E+03
      3.565  0.5761E+01  0.1970E+03
      3.674  0.7297E+01  0.1978E+03
      3.782  0.8212E+01  0.1987E+03
      3.891  0.6952E+01  0.1995E+03
      4.000  0.5208E+01  0.2000E+03
      4.109  0.5618E+01  0.2007E+03
      4.217  0.6890E+01  0.2014E+03
      4.326  0.6079E+01  0.2021E+03
      4.435  0.3876E+01  0.2025E+03
      4.543  0.4005E+01  0.2029E+03
      4.652  0.6424E+01  0.2036E+03
      4.761  0.6196E+01  0.2043E+03
      4.869  0.3123E+01  0.2046E+03
      4.978  0.2027E+01  0.2049E+03
      5.087  0.3643E+01  0.2052E+03
      5.196  0.4936E+01  0.2058E+03
      5.304  0.5207E+01  0.2063E+03
      5.413  0.4983E+01  0.2069E+03
      5.522  0.3779E+01  0.2073E+03
      5.630  0.2058E+01  0.2075E+03
      5.739  0.1351E+01  0.2077E+03
      5.848  0.1476E+01  0.2078E+03
      5.956  0.1149E+01  0.2080E+03
      6.065  0.4451E+00  0.2080E+03
      6.174  0.1963E-01  0.2080E+03
      6.283 -0.4997E-01  0.2080E+03
      6.391 -0.1801E-01  0.2080E+03
      6.500 -0.2661E-02  0.2080E+03
      6.609 -0.1937E-03  0.2080E+03
      6.717 -0.7333E-05  0.2080E+03
      6.826 -0.1477E-06  0.2080E+03
      6.935 -0.1604E-08  0.2080E+03
      7.044 -0.9455E-11  0.2080E+03
      7.152 -0.3040E-13  0.2080E+03
      7.261  0.0000E+00  0.2080E+03
      7.370  0.0000E+00  0.2080E+03
      7.478  0.0000E+00  0.2080E+03
      7.587  0.0000E+00  0.2080E+03
      7.696  0.0000E+00  0.2080E+03
      7.804  0.0000E+00  0.2080E+03
      7.913  0.0000E+00  0.2080E+03
      7.91314496    -24.69769114  301     -0.10367031      1.00000000
    -24.698  0.0000E+00  0.0000E+00  0.0000E+00
    -24.589  0.0000E+00  0.0000E+00  0.0000E+00
    -24.480  0.0000E+00  0.0000E+00  0.0000E+00
    -24.372 -0.3581E-40 -0.3707E-39 -0.7140E-38
    -24.263 -0.2236E-36 -0.2314E-35 -0.4461E-34
    -24.154 -0.7696E-33 -0.7960E-32 -0.1537E-30
    -24.045 -0.1459E-29 -0.1508E-28 -0.2914E-27
    -23.937 -0.1521E-26 -0.1572E-25 -0.3041E-24
    -23.828 -0.8448E-24 -0.8727E-23 -0.1690E-21
    -23.719 -0.2636E-21 -0.2722E-20 -0.5277E-19
    -23.611 -0.4487E-19 -0.4631E-18 -0.8988E-17
    -23.502 -0.4143E-17 -0.4274E-16 -0.8306E-15
    -23.393 -0.2057E-15 -0.2121E-14 -0.4126E-13
    -23.285 -0.5401E-14 -0.5565E-13 -0.1084E-11
    -23.176 -0.7253E-13 -0.7470E-12 -0.1457E-10
    -23.067 -0.4575E-12 -0.4710E-11 -0.9199E-10
    -22.958 -0.9385E-12 -0.9648E-11 -0.1890E-09
    -22.850  0.2315E-11  0.2386E-10  0.4646E-09
    -22.741  0.1275E-10  0.1312E-09  0.2565E-08
    -22.632  0.1879E-10  0.1932E-09  0.3784E-08
    -22.524  0.1055E-10  0.1084E-09  0.2128E-08
    -22.415  0.1123E-11  0.1150E-10  0.2272E-09
    -22.306 -0.9456E-12 -0.9722E-11 -0.1905E-09
    -22.198 -0.3457E-12 -0.3551E-11 -0.6973E-10
    -22.089 -0.4698E-13 -0.4823E-12 -0.9484E-11
    -21.980 -0.3072E-14 -0.3152E-13 -0.6206E-12
    -21.871 -0.1036E-15 -0.1063E-14 -0.2095E-13
    -21.763 -0.1856E-17 -0.1902E-16 -0.3754E-15
    -21.654 -0.1791E-19 -0.1835E-18 -0.3625E-17
    -21.545 -0.9384E-22 -0.9611E-21 -0.1901E-19
    -21.437 -0.2663E-24 -0.2746E-23 -0.5430E-22
    -21.328  0.0000E+00  0.0000E+00  0.0000E+00
    -21.219  0.0000E+00  0.0000E+00  0.0000E+00
    -21.110  0.0000E+00  0.0000E+00  0.0000E+00
    -21.002  0.0000E+00  0.0000E+00  0.0000E+00
    -20.893  0.0000E+00  0.0000E+00  0.0000E+00
    -20.784  0.0000E+00  0.0000E+00  0.0000E+00
    -20.676  0.0000E+00  0.0000E+00  0.0000E+00
    -20.567  0.0000E+00  0.0000E+00  0.0000E+00
    -20.458  0.0000E+00  0.0000E+00  0.0000E+00
    -20.350  0.0000E+00  0.0000E+00  0.0000E+00
    -20.241  0.0000E+00  0.0000E+00  0.0000E+00
    -20.132  0.0000E+00  0.0000E+00  0.0000E+00
    -20.023  0.0000E+00  0.0000E+00  0.0000E+00
    -19.915  0.0000E+00  0.0000E+00  0.0000E+00
    -19.806  0.0000E+00  0.0000E+00  0.0000E+00
    -19.697  0.0000E+00  0.0000E+00  0.0000E+00
    -19.589  0.0000E+00  0.0000E+00  0.0000E+00
    -19.480  0.0000E+00  0.0000E+00  0.0000E+00
    -19.371  0.0000E+00  0.0000E+00  0.0000E+00
    -19.263  0.0000E+00  0.0000E+00  0.0000E+00
    -19.154  0.0000E+00  0.0000E+00  0.0000E+00
    -19.045  0.0000E+00  0.0000E+00  0.0000E+00
    -18.936  0.0000E+00  0.0000E+00  0.0000E+00
    -18.828  0.0000E+00  0.0000E+00  0.0000E+00
    -18.719  0.0000E+00  0.0000E+00  0.0000E+00
    -18.610  0.0000E+00  0.0000E+00  0.0000E+00
    -18.502  0.0000E+00  0.0000E+00  0.0000E+00
    -18.393  0.0000E+00  0.0000E+00  0.0000E+00
    -18.284  0.0000E+00  0.0000E+00  0.0000E+00
    -18.176  0.0000E+00  0.0000E+00  0.0000E+00
    -18.067  0.0000E+00  0.0000E+00  0.0000E+00
    -17.958  0.0000E+00  0.0000E+00  0.0000E+00
    -17.849  0.0000E+00  0.0000E+00  0.0000E+00
    -17.741  0.0000E+00  0.0000E+00  0.0000E+00
    -17.632  0.0000E+00  0.0000E+00  0.0000E+00
    -17.523  0.0000E+00  0.0000E+00  0.0000E+00
    -17.415  0.0000E+00  0.0000E+00  0.0000E+00
    -17.306  0.0000E+00  0.0000E+00  0.0000E+00
    -17.197  0.0000E+00  0.0000E+00  0.0000E+00
    -17.088  0.0000E+00  0.0000E+00  0.0000E+00
    -16.980  0.0000E+00  0.0000E+00  0.0000E+00
    -16.871  0.0000E+00  0.0000E+00  0.0000E+00
    -16.762  0.0000E+00  0.0000E+00  0.0000E+00
    -16.654  0.0000E+00  0.0000E+00  0.0000E+00
    -16.545  0.0000E+00  0.0000E+00  0.0000E+00
    -16.436  0.0000E+00  0.0000E+00  0.0000E+00
    -16.328  0.0000E+00  0.0000E+00  0.0000E+00
    -16.219  0.0000E+00  0.0000E+00  0.0000E+00
    -16.110  0.0000E+00  0.0000E+00  0.0000E+00
    -16.001  0.0000E+00  0.0000E+00  0.0000E+00
    -15.893  0.0000E+00  0.0000E+00  0.0000E+00
    -15.784  0.0000E+00  0.0000E+00  0.0000E+00
    -15.675  0.0000E+00  0.0000E+00  0.0000E+00
    -15.567  0.0000E+00  0.0000E+00  0.0000E+00
    -15.458  0.0000E+00  0.0000E+00  0.0000E+00
    -15.349  0.0000E+00  0.0000E+00  0.0000E+00
    -15.241  0.0000E+00  0.0000E+00  0.0000E+00
    -15.132  0.0000E+00  0.0000E+00  0.0000E+00
    -15.023  0.0000E+00  0.0000E+00  0.0000E+00
    -14.914  0.0000E+00  0.0000E+00  0.0000E+00
    -14.806  0.0000E+00  0.0000E+00  0.0000E+00
    -14.697  0.0000E+00  0.0000E+00  0.0000E+00
    -14.588  0.0000E+00  0.0000E+00  0.0000E+00
    -14.480  0.0000E+00  0.0000E+00  0.0000E+00
    -14.371  0.0000E+00  0.0000E+00  0.0000E+00
    -14.262  0.0000E+00  0.0000E+00  0.0000E+00
    -14.154  0.0000E+00  0.0000E+00  0.0000E+00
    -14.045  0.0000E+00  0.0000E+00  0.0000E+00
    -13.936  0.0000E+00  0.0000E+00  0.0000E+00
    -13.827  0.0000E+00  0.0000E+00  0.0000E+00
    -13.719  0.0000E+00  0.0000E+00  0.0000E+00
    -13.610  0.0000E+00  0.0000E+00  0.0000E+00
    -13.501  0.0000E+00  0.0000E+00  0.0000E+00
    -13.393  0.0000E+00  0.0000E+00  0.0000E+00
    -13.284  0.0000E+00  0.0000E+00  0.0000E+00
    -13.175  0.0000E+00  0.0000E+00  0.0000E+00
    -13.066  0.0000E+00  0.0000E+00  0.0000E+00
    -12.958  0.0000E+00  0.0000E+00  0.0000E+00
    -12.849  0.0000E+00  0.0000E+00  0.0000E+00
    -12.740  0.0000E+00  0.0000E+00  0.0000E+00
    -12.632  0.0000E+00  0.0000E+00  0.0000E+00
    -12.523  0.0000E+00  0.0000E+00  0.0000E+00
    -12.414  0.0000E+00  0.0000E+00  0.0000E+00
    -12.306  0.0000E+00  0.0000E+00  0.0000E+00
    -12.197 -0.2740E-32 -0.5199E-33 -0.3337E-34
    -12.088 -0.1264E-28 -0.2401E-29 -0.1557E-30
    -11.979 -0.3217E-25 -0.6119E-26 -0.4014E-27
    -11.871 -0.4515E-22 -0.8603E-23 -0.5733E-24
    -11.762 -0.3310E-19 -0.6324E-20 -0.4324E-21
    -11.653 -0.1439E-16 -0.2758E-17 -0.1932E-18
    -11.545 -0.3353E-14 -0.6453E-15 -0.4697E-16
    -11.436 -0.4285E-12 -0.8297E-13 -0.6352E-14
    -11.327 -0.2995E-10 -0.5849E-11 -0.4784E-12
    -11.219 -0.1138E-08 -0.2249E-09 -0.2005E-10
    -11.110 -0.2323E-07 -0.4670E-08 -0.4649E-09
    -11.001 -0.2475E-06 -0.5097E-07 -0.5842E-08
    -10.892 -0.1262E-05 -0.2701E-06 -0.3753E-07
    -10.784 -0.1951E-05 -0.4682E-06 -0.9800E-07
    -10.675  0.6920E-05  0.1339E-05  0.8539E-07
    -10.566  0.3275E-04  0.7125E-05  0.1043E-05
    -10.458  0.5161E-04  0.1198E-04  0.2319E-05
    -10.349  0.3741E-04  0.9424E-05  0.2454E-05
    -10.240  0.1150E-04  0.3408E-05  0.1377E-05
    -10.132 -0.2440E-06  0.2015E-06  0.3326E-06
    -10.023 -0.1278E-05 -0.3060E-06 -0.5495E-07
     -9.914 -0.4391E-06 -0.1318E-06 -0.5652E-07
     -9.805 -0.9386E-07 -0.2750E-07 -0.1410E-07
     -9.697 -0.5961E-06 -0.6347E-07 -0.2200E-08
     -9.588 -0.1037E-04 -0.1072E-05 -0.1004E-07
     -9.479 -0.8996E-04 -0.9299E-05 -0.8813E-07
     -9.371 -0.3227E-03 -0.3351E-04 -0.3791E-06
     -9.262 -0.2237E-04 -0.5051E-05 -0.1164E-05
     -9.153  0.2354E-02  0.2219E-03 -0.6650E-05
     -9.044  0.4760E-02  0.4278E-03 -0.2218E-04
     -8.936  0.7064E-02  0.7819E-03  0.2844E-04
     -8.827  0.2137E-01  0.2879E-02  0.3006E-03
     -8.718  0.3786E-01  0.5197E-02  0.5723E-03
     -8.610  0.2730E-01  0.3731E-02  0.3995E-03
     -8.501  0.4597E-02  0.5498E-03  0.2605E-05
     -8.392 -0.2974E-02 -0.4853E-03 -0.1124E-03
     -8.284  0.7344E-02  0.1557E-02  0.5343E-03
     -8.175  0.2628E-01  0.5385E-02  0.1774E-02
     -8.066  0.3274E-01  0.6929E-02  0.2490E-02
     -7.957  0.3152E-01  0.6966E-02  0.3322E-02
     -7.849  0.3430E-01  0.6896E-02  0.4131E-02
     -7.740  0.2724E-01  0.3984E-02  0.2949E-02
     -7.631  0.3124E-01  0.1950E-02  0.2032E-02
     -7.523  0.6273E-01  0.3491E-02  0.3287E-02
     -7.414  0.6557E-01  0.4139E-02  0.3866E-02
     -7.305  0.3633E-01  0.5539E-02  0.5913E-02
     -7.197  0.4517E-01  0.1294E-01  0.1309E-01
     -7.088  0.8249E-01  0.1936E-01  0.1847E-01
     -6.979  0.9286E-01  0.1688E-01  0.1797E-01
     -6.870  0.8383E-01  0.1192E-01  0.1864E-01
     -6.762  0.8512E-01  0.1233E-01  0.2466E-01
     -6.653  0.9031E-01  0.1625E-01  0.3190E-01
     -6.544  0.1016E+00  0.1782E-01  0.5317E-01
     -6.436  0.1386E+00  0.1932E-01  0.1111E+00
     -6.327  0.1492E+00  0.2539E-01  0.1614E+00
     -6.218  0.1155E+00  0.3395E-01  0.1714E+00
     -6.110  0.1166E+00  0.4311E-01  0.1855E+00
     -6.001  0.1597E+00  0.4817E-01  0.2106E+00
     -5.892  0.1972E+00  0.4574E-01  0.2302E+00
     -5.783  0.2030E+00  0.4287E-01  0.2792E+00
     -5.675  0.1942E+00  0.5161E-01  0.4520E+00
     -5.566  0.2010E+00  0.6380E-01  0.6837E+00
     -5.457  0.2068E+00  0.5931E-01  0.8101E+00
     -5.349  0.2027E+00  0.5042E-01  0.8940E+00
     -5.240  0.1810E+00  0.5282E-01  0.8912E+00
     -5.131  0.1392E+00  0.5631E-01  0.7400E+00
     -5.022  0.1120E+00  0.5081E-01  0.5891E+00
     -4.914  0.9259E-01  0.3970E-01  0.4739E+00
     -4.805  0.5922E-01  0.3228E-01  0.4322E+00
     -4.696  0.3880E-01  0.3857E-01  0.6176E+00
     -4.588  0.3489E-01  0.5468E-01  0.9780E+00
     -4.479  0.2704E-01  0.6518E-01  0.1255E+01
     -4.370  0.2301E-01  0.6487E-01  0.1262E+01
     -4.262  0.2759E-01  0.5738E-01  0.1036E+01
     -4.153  0.3212E-01  0.4511E-01  0.7848E+00
     -4.044  0.2952E-01  0.2952E-01  0.6425E+00
     -3.935  0.2134E-01  0.1971E-01  0.6562E+00
     -3.827  0.1949E-01  0.2096E-01  0.7947E+00
     -3.718  0.2534E-01  0.2951E-01  0.1019E+01
     -3.609  0.3854E-01  0.4773E-01  0.1342E+01
     -3.501  0.6972E-01  0.7574E-01  0.1676E+01
     -3.392  0.9265E-01  0.8775E-01  0.1823E+01
     -3.283  0.7089E-01  0.6923E-01  0.1758E+01
     -3.175  0.3445E-01  0.4471E-01  0.1616E+01
     -3.066  0.1924E-01  0.3145E-01  0.1581E+01
     -2.957  0.2012E-01  0.3155E-01  0.1877E+01
     -2.848  0.2593E-01  0.4757E-01  0.2310E+01
     -2.740  0.3690E-01  0.7938E-01  0.2413E+01
     -2.631  0.5958E-01  0.1140E+00  0.2043E+01
     -2.522  0.9564E-01  0.1404E+00  0.1553E+01
     -2.414  0.1218E+00  0.1529E+00  0.1314E+01
     -2.305  0.1042E+00  0.1336E+00  0.1403E+01
     -2.196  0.6010E-01  0.9660E-01  0.1736E+01
     -2.088  0.3354E-01  0.8532E-01  0.1981E+01
     -1.979  0.2595E-01  0.8456E-01  0.1794E+01
     -1.870  0.1985E-01  0.5514E-01  0.1315E+01
     -1.761  0.1289E-01  0.1976E-01  0.9205E+00
     -1.653  0.9853E-02  0.8827E-02  0.8471E+00
     -1.544  0.1420E-01  0.1784E-01  0.1159E+01
     -1.435  0.2349E-01  0.4048E-01  0.1639E+01
     -1.327  0.3566E-01  0.8077E-01  0.2114E+01
     -1.218  0.5330E-01  0.1212E+00  0.2503E+01
     -1.109  0.6933E-01  0.1279E+00  0.2452E+01
     -1.000  0.6698E-01  0.1011E+00  0.1865E+01
     -0.892  0.4585E-01  0.6584E-01  0.1383E+01
     -0.783  0.2689E-01  0.4360E-01  0.1373E+01
     -0.674  0.2115E-01  0.3593E-01  0.1371E+01
     -0.566  0.2205E-01  0.3760E-01  0.1299E+01
     -0.457  0.2677E-01  0.4942E-01  0.1554E+01
     -0.348  0.3241E-01  0.5350E-01  0.1841E+01
     -0.240  0.3066E-01  0.3736E-01  0.1803E+01
     -0.131  0.2293E-01  0.2081E-01  0.1751E+01
     -0.022  0.1882E-01  0.2418E-01  0.1676E+01
      0.087  0.2849E-01  0.4778E-01  0.1455E+01
      0.195  0.5669E-01  0.7639E-01  0.1245E+01
      0.304  0.7916E-01  0.8191E-01  0.1028E+01
      0.413  0.6118E-01  0.5071E-01  0.6714E+00
      0.521  0.2041E-01  0.1468E-01  0.2419E+00
      0.630  0.4168E-04  0.5769E-02  0.2001E-01
      0.739  0.7939E-02  0.2008E-01  0.3465E-01
      0.847  0.2977E-01  0.4297E-01  0.9120E-01
      0.956  0.5213E-01  0.6259E-01  0.1232E+00
      1.065  0.6339E-01  0.6755E-01  0.1610E+00
      1.174  0.5708E-01  0.5631E-01  0.1643E+00
      1.282  0.4590E-01  0.5131E-01  0.1396E+00
      1.391  0.3705E-01  0.5808E-01  0.1423E+00
      1.500  0.2512E-01  0.6060E-01  0.1307E+00
      1.608  0.1560E-01  0.6361E-01  0.9996E-01
      1.717  0.1671E-01  0.6024E-01  0.1020E+00
      1.826  0.4496E-01  0.6410E-01  0.1683E+00
      1.934  0.8493E-01  0.9463E-01  0.2689E+00
      2.043  0.8045E-01  0.9809E-01  0.2624E+00
      2.152  0.3710E-01  0.5483E-01  0.1498E+00
      2.261  0.7605E-02  0.2481E-01  0.1010E+00
      2.369  0.7324E-02  0.4375E-01  0.1514E+00
      2.478  0.1831E-01  0.9748E-01  0.1842E+00
      2.587  0.3083E-01  0.1381E+00  0.1657E+00
      2.695  0.5608E-01  0.1337E+00  0.1603E+00
      2.804  0.7846E-01  0.1161E+00  0.1699E+00
      2.913  0.6927E-01  0.9686E-01  0.1454E+00
      3.022  0.4728E-01  0.7488E-01  0.9762E-01
      3.130  0.3494E-01  0.6349E-01  0.5618E-01
      3.239  0.3066E-01  0.6220E-01  0.3966E-01
      3.348  0.3075E-01  0.6083E-01  0.5165E-01
      3.456  0.3541E-01  0.5734E-01  0.7234E-01
      3.565  0.4212E-01  0.5616E-01  0.9260E-01
      3.674  0.4637E-01  0.6473E-01  0.1109E+00
      3.782  0.3920E-01  0.8219E-01  0.1051E+00
      3.891  0.2210E-01  0.8935E-01  0.7774E-01
      4.000  0.1584E-01  0.7877E-01  0.6312E-01
      4.109  0.2753E-01  0.7408E-01  0.7047E-01
      4.217  0.3640E-01  0.8158E-01  0.7778E-01
      4.326  0.2305E-01  0.7195E-01  0.6397E-01
      4.435  0.8819E-02  0.4649E-01  0.4330E-01
      4.543  0.3739E-01  0.5462E-01  0.6377E-01
      4.652  0.9766E-01  0.9191E-01  0.1224E+00
      4.761  0.1100E+00  0.8746E-01  0.1290E+00
      4.869  0.5720E-01  0.4023E-01  0.6779E-01
      4.978  0.1941E-01  0.1225E-01  0.2712E-01
      5.087  0.3135E-01  0.1673E-01  0.3322E-01
      5.196  0.6170E-01  0.2530E-01  0.4795E-01
      5.304  0.8214E-01  0.3454E-01  0.5646E-01
      5.413  0.7206E-01  0.5006E-01  0.5710E-01
      5.522  0.4327E-01  0.4768E-01  0.4549E-01
      5.630  0.2290E-01  0.2332E-01  0.2663E-01
      5.739  0.1636E-01  0.8440E-02  0.1556E-01
      5.848  0.1475E-01  0.8522E-02  0.1399E-01
      5.956  0.8569E-02  0.7932E-02  0.1006E-01
      6.065  0.1975E-02  0.3548E-02  0.3590E-02
      6.174 -0.3513E-03  0.2817E-03  0.4140E-04
      6.283 -0.3487E-03 -0.3676E-03 -0.4426E-03
      6.391 -0.9543E-04 -0.1412E-03 -0.1516E-03
      6.500 -0.1278E-04 -0.2124E-04 -0.2205E-04
      6.609 -0.8947E-06 -0.1557E-05 -0.1596E-05
      6.717 -0.3331E-07 -0.5909E-07 -0.6026E-07
      6.826 -0.6663E-09 -0.1192E-08 -0.1213E-08
      6.935 -0.7213E-11 -0.1294E-10 -0.1316E-10
      7.044 -0.4247E-13 -0.7633E-13 -0.7758E-13
      7.152 -0.1364E-15 -0.2454E-15 -0.2493E-15
      7.261  0.0000E+00  0.0000E+00  0.0000E+00
      7.370  0.0000E+00  0.0000E+00  0.0000E+00
      7.478  0.0000E+00  0.0000E+00  0.0000E+00
      7.587  0.0000E+00  0.0000E+00  0.0000E+00
      7.696  0.0000E+00  0.0000E+00  0.0000E+00
      7.804  0.0000E+00  0.0000E+00  0.0000E+00
      7.913  0.0000E+00  0.0000E+00  0.0000E+00
      7.91314496    -24.69769114  301     -0.10367031      1.00000000
    -24.698  0.0000E+00  0.0000E+00  0.0000E+00
    -24.589  0.0000E+00  0.0000E+00  0.0000E+00
    -24.480  0.0000E+00  0.0000E+00  0.0000E+00
    -24.372 -0.6331E-40 -0.3049E-39 -0.1117E-37
    -24.263 -0.3955E-36 -0.1904E-35 -0.6978E-34
    -24.154 -0.1362E-32 -0.6555E-32 -0.2404E-30
    -24.045 -0.2582E-29 -0.1243E-28 -0.4560E-27
    -23.937 -0.2694E-26 -0.1296E-25 -0.4759E-24
    -23.828 -0.1497E-23 -0.7197E-23 -0.2645E-21
    -23.719 -0.4672E-21 -0.2246E-20 -0.8258E-19
    -23.611 -0.7955E-19 -0.3824E-18 -0.1407E-16
    -23.502 -0.7348E-17 -0.3531E-16 -0.1300E-14
    -23.393 -0.3649E-15 -0.1753E-14 -0.6458E-13
    -23.285 -0.9585E-14 -0.4604E-13 -0.1697E-11
    -23.176 -0.1288E-12 -0.6183E-12 -0.2281E-10
    -23.067 -0.8128E-12 -0.3901E-11 -0.1440E-09
    -22.958 -0.1669E-11 -0.8004E-11 -0.2960E-09
    -22.850  0.4108E-11  0.1973E-10  0.7272E-09
    -22.741  0.2266E-10  0.1087E-09  0.4016E-08
    -22.632  0.3341E-10  0.1602E-09  0.5925E-08
    -22.524  0.1878E-10  0.9003E-10  0.3332E-08
    -22.415  0.2002E-11  0.9583E-11  0.3561E-09
    -22.306 -0.1682E-11 -0.8065E-11 -0.2982E-09
    -22.198 -0.6153E-12 -0.2949E-11 -0.1092E-09
    -22.089 -0.8366E-13 -0.4008E-12 -0.1486E-10
    -21.980 -0.5472E-14 -0.2621E-13 -0.9722E-12
    -21.871 -0.1847E-15 -0.8843E-15 -0.3282E-13
    -21.763 -0.3308E-17 -0.1584E-16 -0.5882E-15
    -21.654 -0.3193E-19 -0.1528E-18 -0.5679E-17
    -21.545 -0.1674E-21 -0.8011E-21 -0.2978E-19
    -21.437 -0.4778E-24 -0.2278E-23 -0.8528E-22
    -21.328  0.0000E+00  0.0000E+00  0.0000E+00
    -21.219  0.0000E+00  0.0000E+00  0.0000E+00
    -21.110  0.0000E+00  0.0000E+00  0.0000E+00
    -21.002  0.0000E+00  0.0000E+00  0.0000E+00
    -20.893  0.0000E+00  0.0000E+00  0.0000E+00
    -20.784  0.0000E+00  0.0000E+00  0.0000E+00
    -20.676  0.0000E+00  0.0000E+00  0.0000E+00
    -20.567  0.0000E+00  0.0000E+00  0.0000E+00
    -20.458  0.0000E+00  0.0000E+00  0.0000E+00
    -20.350  0.0000E+00  0.0000E+00  0.0000E+00
    -20.241  0.0000E+00  0.0000E+00  0.0000E+00
    -20.132  0.0000E+00  0.0000E+00  0.0000E+00
    -20.023  0.0000E+00  0.0000E+00  0.0000E+00
    -19.915  0.0000E+00  0.0000E+00  0.0000E+00
    -19.806  0.0000E+00  0.0000E+00  0.0000E+00
    -19.697  0.0000E+00  0.0000E+00  0.0000E+00
    -19.589  0.0000E+00  0.0000E+00  0.0000E+00
    -19.480  0.0000E+00  0.0000E+00  0.0000E+00
    -19.371  0.0000E+00  0.0000E+00  0.0000E+00
    -19.263  0.0000E+00  0.0000E+00  0.0000E+00
    -19.154  0.0000E+00  0.0000E+00  0.0000E+00
    -19.045  0.0000E+00  0.0000E+00  0.0000E+00
    -18.936  0.0000E+00  0.0000E+00  0.0000E+00
    -18.828  0.0000E+00  0.0000E+00  0.0000E+00
    -18.719  0.0000E+00  0.0000E+00  0.0000E+00
    -18.610  0.0000E+00  0.0000E+00  0.0000E+00
    -18.502  0.0000E+00  0.0000E+00  0.0000E+00
    -18.393  0.0000E+00  0.0000E+00  0.0000E+00
    -18.284  0.0000E+00  0.0000E+00  0.0000E+00
    -18.176  0.0000E+00  0.0000E+00  0.0000E+00
    -18.067  0.0000E+00  0.0000E+00  0.0000E+00
    -17.958  0.0000E+00  0.0000E+00  0.0000E+00
    -17.849  0.0000E+00  0.0000E+00  0.0000E+00
    -17.741  0.0000E+00  0.0000E+00  0.0000E+00
    -17.632  0.0000E+00  0.0000E+00  0.0000E+00
    -17.523  0.0000E+00  0.0000E+00  0.0000E+00
    -17.415  0.0000E+00  0.0000E+00  0.0000E+00
    -17.306  0.0000E+00  0.0000E+00  0.0000E+00
    -17.197  0.0000E+00  0.0000E+00  0.0000E+00
    -17.088  0.0000E+00  0.0000E+00  0.0000E+00
    -16.980  0.0000E+00  0.0000E+00  0.0000E+00
    -16.871  0.0000E+00  0.0000E+00  0.0000E+00
    -16.762  0.0000E+00  0.0000E+00  0.0000E+00
    -16.654  0.0000E+00  0.0000E+00  0.0000E+00
    -16.545  0.0000E+00  0.0000E+00  0.0000E+00
    -16.436  0.0000E+00  0.0000E+00  0.0000E+00
    -16.328  0.0000E+00  0.0000E+00  0.0000E+00
    -16.219  0.0000E+00  0.0000E+00  0.0000E+00
    -16.110  0.0000E+00  0.0000E+00  0.0000E+00
    -16.001  0.0000E+00  0.0000E+00  0.0000E+00
    -15.893  0.0000E+00  0.0000E+00  0.0000E+00
    -15.784  0.0000E+00  0.0000E+00  0.0000E+00
    -15.675  0.0000E+00  0.0000E+00  0.0000E+00
    -15.567  0.0000E+00  0.0000E+00  0.0000E+00
    -15.458  0.0000E+00  0.0000E+00  0.0000E+00
    -15.349  0.0000E+00  0.0000E+00  0.0000E+00
    -15.241  0.0000E+00  0.0000E+00  0.0000E+00
    -15.132  0.0000E+00  0.0000E+00  0.0000E+00
    -15.023  0.0000E+00  0.0000E+00  0.0000E+00