   18   18    1    1
  0.4124378E+02  0.5643844E-09  0.5643844E-09  0.2691227E-08  0.5000000E-15
  1.000000000000000E-004
  CAR 
 unknown system                          
    170     13    104
 
  0.0000000E+00  0.0000000E+00  0.0000000E+00  0.4000000E-01
    1      -22.697691   1.000000
    2      -10.578221   1.000000
    3       -9.065983   1.000000
    4       -7.787474   1.000000
    5       -7.058541   1.000000
    6       -6.729526   1.000000
    7       -6.619529   1.000000
    8       -6.596842   1.000000
    9       -6.493967   1.000000
   10       -6.408668   1.000000
   11       -6.301238   1.000000
   12       -6.274622   1.000000
   13       -6.257739   1.000000
   14       -6.244616   1.000000
   15       -6.145859   1.000000
   16       -5.811517   1.000000
   17       -5.785990   1.000000
   18       -5.729295   1.000000
   19       -5.636595   1.000000
   20       -5.613563   1.000000
   21       -5.590528   1.000000
   22       -5.540583   1.000000
   23       -5.255552   1.000000
   24       -5.186157   1.000000
   25       -4.732504   1.000000
   26       -4.710292   1.000000
   27       -4.509582   1.000000
   28       -3.872530   1.000000
   29       -3.822915   1.000000
   30       -3.724244   1.000000
   31       -3.691142   1.000000
   32       -3.671008   1.000000
   33       -3.648993   1.000000
   34       -3.580648   1.000000
   35       -3.460689   1.000000
   36       -3.460355   1.000000
   37       -3.414353   1.000000
   38       -3.372449   1.000000
   39       -3.338611   1.000000
   40       -3.209291   1.000000
   41       -3.180432   1.000000
   42       -3.169137   1.000000
   43       -3.079758   1.000000
   44       -3.053218   1.000000
   45       -2.973937   1.000000
   46       -2.967540   1.000000
   47       -2.668525   1.000000
   48       -2.649672   1.000000
   49       -2.637437   1.000000
   50       -2.478318   1.000000
   51       -2.360576   1.000000
   52       -2.234495   1.000000
   53       -2.192017   1.000000
   54       -2.112085   1.000000
   55       -2.077529   1.000000
   56       -1.793097   1.000000
   57       -1.725290   1.000000
   58       -1.561072   1.000000
   59       -1.496741   1.000000
   60       -1.343191   1.000000
   61       -1.222825   1.000000
   62       -1.173735   1.000000
   63       -1.089748   1.000000
   64       -0.964175   1.000000
   65       -0.964158   1.000000
   66       -0.773811   1.000012
   67       -0.767957   1.000014
   68       -0.763920   1.000016
   69       -0.467269   1.013749
   70       -0.405413   1.027261
   71       -0.358880   1.035080
   72       -0.311376   1.028677
   73       -0.293045   1.018699
   74       -0.266872   0.994031
   75       -0.192643   0.838329
   76       -0.168114   0.757624
   77       -0.021294   0.182058
   78       -0.013538   0.158192
   79       -0.009513   0.146367
   80        0.049870   0.018683
   81        0.080981  -0.015221
   82        0.105358  -0.029200
   83        0.161316  -0.034113
   84        0.167285  -0.033289
   85        0.210864  -0.024331
   86        0.240140  -0.017725
   87        0.354005  -0.002827
   88        0.357473  -0.002639
   89        0.360314  -0.002492
   90        0.605604  -0.000003
   91        0.791168  -0.000000
   92        0.833210  -0.000000
   93        1.578107  -0.000000
   94        1.899107  -0.000000
   95        2.239578  -0.000000
   96        2.426253  -0.000000
   97        2.522177  -0.000000
   98        2.530102  -0.000000
   99        2.742851  -0.000000
  100        2.769448  -0.000000
  101        2.816715  -0.000000
  102        2.983969  -0.000000
  103        4.253476  -0.000000
  104        4.350495  -0.000000
 
  0.2000000E+00  0.2775558E-16  0.0000000E+00  0.8000000E-01
    1      -22.697397   1.000000
    2      -10.525853   1.000000
    3       -8.751943   1.000000
    4       -7.506708   1.000000
    5       -6.955858   1.000000
    6       -6.535466   1.000000
    7       -6.493251   1.000000
    8       -6.433042   1.000000
    9       -6.396014   1.000000
   10       -6.276844   1.000000
   11       -6.140978   1.000000
   12       -6.127549   1.000000
   13       -6.080558   1.000000
   14       -6.016136   1.000000
   15       -5.940808   1.000000
   16       -5.675556   1.000000
   17       -5.614350   1.000000
   18       -5.579749   1.000000
   19       -5.507958   1.000000
   20       -5.382575   1.000000
   21       -5.355514   1.000000
   22       -5.266514   1.000000
   23       -5.120943   1.000000
   24       -5.090897   1.000000
   25       -4.653332   1.000000
   26       -4.639072   1.000000
   27       -4.476560   1.000000
   28       -3.960943   1.000000
   29       -3.956905   1.000000
   30       -3.842220   1.000000
   31       -3.742509   1.000000
   32       -3.691298   1.000000
   33       -3.636117   1.000000
   34       -3.561861   1.000000
   35       -3.536772   1.000000
   36       -3.508813   1.000000
   37       -3.295616   1.000000
   38       -3.242650   1.000000
   39       -3.232527   1.000000
   40       -3.218129   1.000000
   41       -3.167215   1.000000
   42       -3.135531   1.000000
   43       -3.084175   1.000000
   44       -3.034544   1.000000
   45       -2.946223   1.000000
   46       -2.941243   1.000000
   47       -2.892668   1.000000
   48       -2.846600   1.000000
   49       -2.801567   1.000000
   50       -2.750659   1.000000
   51       -2.605037   1.000000
   52       -2.554285   1.000000
   53       -2.348250   1.000000
   54       -2.320128   1.000000
   55       -2.047737   1.000000
   56       -1.975284   1.000000
   57       -1.847349   1.000000
   58       -1.812781   1.000000
   59       -1.586773   1.000000
   60       -1.548522   1.000000
   61       -1.491984   1.000000
   62       -1.421589   1.000000
   63       -1.328495   1.000000
   64       -1.326759   1.000000
   65       -1.248419   1.000000
   66       -1.173765   1.000000
   67       -1.170220   1.000000
   68       -1.129032   1.000000
   69       -0.986844   1.000000
   70       -0.814409   1.000003
   71       -0.795128   1.000006
   72       -0.667141   1.000250
   73       -0.606411   1.001089
   74       -0.528223   1.005271
   75       -0.521617   1.005919
   76       -0.462507   1.014656
   77       -0.446145   1.018011
   78       -0.390047   1.030550
   79       -0.378332   1.032702
   80       -0.351997   1.035415
   81       -0.214154   0.897520
   82       -0.171964   0.771144
   83       -0.115562   0.550221
   84       -0.089588   0.440574
   85       -0.084129   0.417750
   86        0.043134   0.028807
   87        0.061565   0.003555
   88        0.103147  -0.028312
   89        0.148695  -0.035256
   90        0.200436  -0.026727
   91        0.984806  -0.000000
   92        1.340315  -0.000000
   93        1.422218  -0.000000
   94        1.646113  -0.000000
   95        1.925080  -0.000000
   96        2.006608  -0.000000
   97        2.419959  -0.000000
   98        2.536234  -0.000000
   99        3.466262  -0.000000
  100        3.525044  -0.000000
  101        3.752069  -0.000000
  102        4.192140  -0.000000
  103        4.534060  -0.000000
  104        5.240088  -0.000000
 
  0.4000000E+00  0.5551115E-16  0.0000000E+00  0.8000000E-01
    1      -22.696792   1.000000
    2      -10.447056   1.000000
    3       -7.895307   1.000000
    4       -7.011737   1.000000
    5       -6.890657   1.000000
    6       -6.603279   1.000000
    7       -6.487471   1.000000
    8       -6.215421   1.000000
    9       -6.104236   1.000000
   10       -5.759239   1.000000
   11       -5.690137   1.000000
   12       -5.674908   1.000000
   13       -5.607906   1.000000
   14       -5.544388   1.000000
   15       -5.500349   1.000000
   16       -5.347190   1.000000
   17       -5.167822   1.000000
   18       -5.137243   1.000000
   19       -5.118182   1.000000
   20       -4.995185   1.000000
   21       -4.901787   1.000000
   22       -4.865060   1.000000
   23       -4.630831   1.000000
   24       -4.576348   1.000000
   25       -4.495541   1.000000
   26       -4.386643   1.000000
   27       -4.384144   1.000000
   28       -4.355066   1.000000
   29       -4.171233   1.000000
   30       -4.109987   1.000000
   31       -4.054519   1.000000
   32       -3.967619   1.000000
   33       -3.772923   1.000000
   34       -3.735612   1.000000
   35       -3.733479   1.000000
   36       -3.687984   1.000000
   37       -3.581290   1.000000
   38       -3.508982   1.000000
   39       -3.473887   1.000000
   40       -3.384007   1.000000
   41       -3.294916   1.000000
   42       -3.203181   1.000000
   43       -3.159121   1.000000
   44       -3.117783   1.000000
   45       -2.985236   1.000000
   46       -2.964932   1.000000
   47       -2.903743   1.000000
   48       -2.883150   1.000000
   49       -2.823601   1.000000
   50       -2.768937   1.000000
   51       -2.683994   1.000000
   52       -2.611532   1.000000
   53       -2.584570   1.000000
   54       -2.573498   1.000000
   55       -2.506123   1.000000
   56       -2.458896   1.000000
   57       -2.390152   1.000000
   58       -2.314822   1.000000
   59       -2.219724   1.000000
   60       -2.172373   1.000000
   61       -2.103646   1.000000
   62       -2.099690   1.000000
   63       -2.064100   1.000000
   64       -1.887914   1.000000
   65       -1.757532   1.000000
   66       -1.712249   1.000000
   67       -1.619696   1.000000
   68       -1.542144   1.000000
   69       -1.489299   1.000000
   70       -1.465553   1.000000
   71       -1.369801   1.000000
   72       -1.341464   1.000000
   73       -1.277421   1.000000
   74       -1.191024   1.000000
   75       -1.170123   1.000000
   76       -1.136527   1.000000
   77       -1.082505   1.000000
   78       -0.952303   1.000000
   79       -0.810857   1.000003
   80       -0.619822   1.000801
   81       -0.570215   1.002366
   82       -0.507543   1.007506
   83       -0.326514   1.033281
   84       -0.178086   0.792016
   85       -0.150521   0.692337
   86       -0.118258   0.561544
   87       -0.031495   0.215529
   88        0.132088  -0.035112
   89        0.171956  -0.032541
   90        0.287358  -0.009217
   91        0.911295  -0.000000
   92        1.622258  -0.000000
   93        1.754836  -0.000000
   94        1.938726  -0.000000
   95        1.939322  -0.000000
   96        2.465910  -0.000000
   97        2.724472  -0.000000
   98        2.966308  -0.000000
   99        3.392002  -0.000000
  100        3.834646  -0.000000
  101        4.194264  -0.000000
  102        4.714773  -0.000000
  103        5.126064  -0.000000
  104        5.913145   0.000000
 
  0.0000000E+00  0.2000000E+00  0.0000000E+00  0.8000000E-01
    1      -22.697363   1.000000
    2      -10.478253   1.000000
    3       -8.756175   1.000000
    4       -7.518792   1.000000
    5       -6.921178   1.000000
    6       -6.631412   1.000000
    7       -6.489414   1.000000
    8       -6.416206   1.000000
    9       -6.362375   1.000000
   10       -6.244262   1.000000
   11       -6.172424   1.000000
   12       -6.129088   1.000000
   13       -6.076397   1.000000
   14       -6.005126   1.000000
   15       -5.928771   1.000000
   16       -5.661316   1.000000
   17       -5.628298   1.000000
   18       -5.614863   1.000000
   19       -5.521261   1.000000
   20       -5.397650   1.000000
   21       -5.344450   1.000000
   22       -5.319355   1.000000
   23       -5.142921   1.000000
   24       -5.035170   1.000000
   25       -4.657216   1.000000
   26       -4.621425   1.000000
   27       -4.498208   1.000000
   28       -3.981788   1.000000
   29       -3.916571   1.000000
   30       -3.877456   1.000000
   31       -3.787902   1.000000
   32       -3.723379   1.000000
   33       -3.647737   1.000000
   34       -3.584435   1.000000
   35       -3.555401   1.000000
   36       -3.427196   1.000000
   37       -3.313770   1.000000
   38       -3.293152   1.000000
   39       -3.221301   1.000000
   40       -3.206855   1.000000
   41       -3.174172   1.000000
   42       -3.128177   1.000000
   43       -3.106839   1.000000
   44       -3.058048   1.000000
   45       -2.964351   1.000000
   46       -2.920602   1.000000
   47       -2.889197   1.000000
   48       -2.841517   1.000000
   49       -2.789299   1.000000
   50       -2.739483   1.000000
   51       -2.666768   1.000000
   52       -2.561276   1.000000
   53       -2.313771   1.000000
   54       -2.204026   1.000000
   55       -2.107530   1.000000
   56       -1.996577   1.000000
   57       -1.809722   1.000000
   58       -1.762874   1.000000
   59       -1.621374   1.000000
   60       -1.530642   1.000000
   61       -1.461875   1.000000
   62       -1.379827   1.000000
   63       -1.321367   1.000000
   64       -1.291072   1.000000
   65       -1.247358   1.000000
   66       -1.219628   1.000000
   67       -1.158465   1.000000
   68       -1.112835   1.000000
   69       -1.014046   1.000000
   70       -0.826145   1.000002
   71       -0.783300   1.000008
   72       -0.685898   1.000152
   73       -0.587438   1.001651
   74       -0.537503   1.004458
   75       -0.489898   1.009923
   76       -0.475067   1.012339
   77       -0.441695   1.018980
   78       -0.413396   1.025442
   79       -0.362138   1.034817
   80       -0.350227   1.035448
   81       -0.231126   0.936041
   82       -0.174257   0.779053
   83       -0.148613   0.684949
   84       -0.106648   0.512600
   85       -0.089380   0.439704
   86        0.020866   0.070067
   87        0.062813   0.002117
   88        0.088406  -0.020512
   89        0.150043  -0.035179
   90        0.254311  -0.014823
   91        0.945455  -0.000000
   92        1.377345  -0.000000
   93        1.422577  -0.000000
   94        1.616737  -0.000000
   95        1.917752  -0.000000
   96        2.013517  -0.000000
   97        2.518769  -0.000000
   98        2.580430  -0.000000
   99        3.099627  -0.000000
  100        3.784528  -0.000000
  101        3.869674  -0.000000
  102        4.302745  -0.000000
  103        4.633662  -0.000000
  104        5.086630  -0.000000
 
  0.2000000E+00  0.2000000E+00  0.0000000E+00  0.8000000E-01
    1      -22.697362   1.000000
    2      -10.478253   1.000000
    3       -8.756175   1.000000
    4       -7.518792   1.000000
    5       -6.921179   1.000000
    6       -6.631467   1.000000
    7       -6.489330   1.000000
    8       -6.416205   1.000000
    9       -6.362407   1.000000
   10       -6.244265   1.000000
   11       -6.172419   1.000000
   12       -6.129090   1.000000
   13       -6.076387   1.000000
   14       -6.005127   1.000000
   15       -5.928771   1.000000
   16       -5.661315   1.000000
   17       -5.628295   1.000000
   18       -5.614863   1.000000
   19       -5.521269   1.000000
   20       -5.397653   1.000000
   21       -5.344452   1.000000
   22       -5.319360   1.000000
   23       -5.142924   1.000000
   24       -5.035170   1.000000
   25       -4.657215   1.000000
   26       -4.621429   1.000000
   27       -4.498207   1.000000
   28       -3.981791   1.000000
   29       -3.916574   1.000000
   30       -3.877454   1.000000
   31       -3.787893   1.000000
   32       -3.723378   1.000000
   33       -3.647734   1.000000
   34       -3.584435   1.000000
   35       -3.555405   1.000000
   36       -3.427196   1.000000
   37       -3.313766   1.000000
   38       -3.293150   1.000000
   39       -3.221302   1.000000
   40       -3.206854   1.000000
   41       -3.174173   1.000000
   42       -3.128177   1.000000
   43       -3.106843   1.000000
   44       -3.058048   1.000000
   45       -2.964352   1.000000
   46       -2.920605   1.000000
   47       -2.889194   1.000000
   48       -2.841516   1.000000
   49       -2.789300   1.000000
   50       -2.739485   1.000000
   51       -2.666775   1.000000
   52       -2.561270   1.000000
   53       -2.313769   1.000000
   54       -2.204029   1.000000
   55       -2.107529   1.000000
   56       -1.996577   1.000000
   57       -1.809725   1.000000
   58       -1.762873   1.000000
   59       -1.621373   1.000000
   60       -1.530643   1.000000
   61       -1.461877   1.000000
   62       -1.379821   1.000000
   63       -1.321363   1.000000
   64       -1.291070   1.000000
   65       -1.247359   1.000000
   66       -1.219630   1.000000
   67       -1.158466   1.000000
   68       -1.112834   1.000000
   69       -1.014041   1.000000
   70       -0.826143   1.000002
   71       -0.783302   1.000008
   72       -0.685899   1.000152
   73       -0.587437   1.001651
   74       -0.537503   1.004458
   75       -0.489898   1.009923
   76       -0.475070   1.012339
   77       -0.441695   1.018980
   78       -0.413397   1.025441
   79       -0.362138   1.034817
   80       -0.350228   1.035448
   81       -0.231128   0.936046
   82       -0.174259   0.779060
   83       -0.148615   0.684956
   84       -0.106649   0.512605
   85       -0.089380   0.439703
   86        0.020870   0.070059
   87        0.062815   0.002115
   88        0.088407  -0.020513
   89        0.150044  -0.035179
   90        0.254303  -0.014824
   91        0.945446  -0.000000
   92        1.377351  -0.000000
   93        1.422574  -0.000000
   94        1.616739  -0.000000
   95        1.917751  -0.000000
   96        2.013546  -0.000000
   97        2.518778  -0.000000
   98        2.580461  -0.000000
   99        3.099662  -0.000000
  100        3.784550  -0.000000
  101        3.869594  -0.000000
  102        4.302676  -0.000000
  103        4.633623  -0.000000
  104        5.086628  -0.000000
 
  0.4000000E+00  0.2000000E+00  0.0000000E+00  0.8000000E-01
    1      -22.696647   1.000000
    2      -10.412523   1.000000
    3       -8.162348   1.000000
    4       -7.088887   1.000000
    5       -6.737613   1.000000
    6       -6.595174   1.000000
    7       -6.341103   1.000000
    8       -6.294202   1.000000
    9       -6.221039   1.000000
   10       -5.919033   1.000000
   11       -5.861480   1.000000
   12       -5.851414   1.000000
   13       -5.707691   1.000000
   14       -5.617484   1.000000
   15       -5.580352   1.000000
   16       -5.430982   1.000000
   17       -5.353790   1.000000
   18       -5.271368   1.000000
   19       -5.210372   1.000000
   20       -5.174615   1.000000
   21       -4.996314   1.000000
   22       -4.906546   1.000000
   23       -4.801376   1.000000
   24       -4.712876   1.000000
   25       -4.519752   1.000000
   26       -4.472870   1.000000
   27       -4.409883   1.000000
   28       -4.281406   1.000000
   29       -4.188844   1.000000
   30       -4.073406   1.000000
   31       -3.970467   1.000000
   32       -3.897205   1.000000
   33       -3.815273   1.000000
   34       -3.664884   1.000000
   35       -3.627842   1.000000
   36       -3.546238   1.000000
   37       -3.505204   1.000000
   38       -3.441406   1.000000
   39       -3.327038   1.000000
   40       -3.317952   1.000000
   41       -3.288463   1.000000
   42       -3.227095   1.000000
   43       -3.189234   1.000000
   44       -3.152554   1.000000
   45       -3.073489   1.000000
   46       -3.047611   1.000000
   47       -2.929722   1.000000
   48       -2.855086   1.000000
   49       -2.797225   1.000000
   50       -2.741509   1.000000
   51       -2.700258   1.000000
   52       -2.617514   1.000000
   53       -2.441643   1.000000
   54       -2.403038   1.000000
   55       -2.348333   1.000000
   56       -2.316967   1.000000
   57       -2.282575   1.000000
   58       -2.186764   1.000000
   59       -2.161721   1.000000
   60       -2.082374   1.000000
   61       -2.029217   1.000000
   62       -2.017953   1.000000
   63       -1.973935   1.000000
   64       -1.897291   1.000000
   65       -1.705216   1.000000
   66       -1.564614   1.000000
   67       -1.503092   1.000000
   68       -1.423290   1.000000
   69       -1.379899   1.000000
   70       -1.306376   1.000000
   71       -1.173224   1.000000
   72       -1.130669   1.000000
   73       -1.075753   1.000000
   74       -1.025481   1.000000
   75       -0.981518   1.000000
   76       -0.812149   1.000003
   77       -0.621162   1.000777
   78       -0.520966   1.005986
   79       -0.471954   1.012891
   80       -0.442074   1.018897
   81       -0.387990   1.030956
   82       -0.358413   1.035112
   83       -0.326668   1.033313
   84       -0.261225   0.986853
   85       -0.111554   0.533329
   86       -0.105362   0.507157
   87       -0.028686   0.206086
   88        0.029056   0.053471
   89        0.084358  -0.017748
   90        0.210820  -0.024341
   91        0.253993  -0.014885
   92        0.747400  -0.000000
   93        1.073956  -0.000000
   94        1.282347  -0.000000
   95        2.373921  -0.000000
   96        2.794505  -0.000000
   97        3.217365  -0.000000
   98        3.442612  -0.000000
   99        3.601076  -0.000000
  100        3.824643  -0.000000
  101        4.013571  -0.000000
  102        4.368697  -0.000000
  103        4.728300  -0.000000
  104        5.342522  -0.000000
 
 -0.4000000E+00  0.2000000E+00  0.0000000E+00  0.8000000E-01
    1      -22.696458   1.000000
    2      -10.374611   1.000000
    3       -7.211577   1.000000
    4       -7.139541   1.000000
    5       -6.845362   1.000000
    6       -6.572709   1.000000
    7       -6.300449   1.000000
    8       -6.139532   1.000000
    9       -6.079788   1.000000
   10       -5.955598   1.000000
   11       -5.596686   1.000000
   12       -5.404778   1.000000
   13       -5.273299   1.000000
   14       -5.231318   1.000000
   15       -5.203424   1.000000
   16       -5.089245   1.000000
   17       -5.042796   1.000000
   18       -4.948147   1.000000
   19       -4.898413   1.000000
   20       -4.727991   1.000000
   21       -4.722193   1.000000
   22       -4.712405   1.000000
   23       -4.638886   1.000000
   24       -4.553326   1.000000
   25       -4.540367   1.000000
   26       -4.371096   1.000000
   27       -4.344770   1.000000
   28       -4.332711   1.000000
   29       -4.272966   1.000000
   30       -4.265094   1.000000
   31       -4.170070   1.000000
   32       -4.151438   1.000000
   33       -4.128100   1.000000
   34       -3.925211   1.000000
   35       -3.819444   1.000000
   36       -3.724472   1.000000
   37       -3.715011   1.000000
   38       -3.687549   1.000000
   39       -3.592891   1.000000
   40       -3.552128   1.000000
   41       -3.504231   1.000000
   42       -3.475547   1.000000
   43       -3.449548   1.000000
   44       -3.418849   1.000000
   45       -3.335359   1.000000
   46       -3.239793   1.000000
   47       -3.105815   1.000000
   48       -3.037525   1.000000
   49       -2.909490   1.000000
   50       -2.876187   1.000000
   51       -2.834956   1.000000
   52       -2.744337   1.000000
   53       -2.732395   1.000000
   54       -2.644798   1.000000
   55       -2.586386   1.000000
   56       -2.541625   1.000000
   57       -2.340967   1.000000
   58       -2.222614   1.000000
   59       -2.180800   1.000000
   60       -2.148264   1.000000
   61       -2.066804   1.000000
   62       -2.026321   1.000000
   63       -1.949913   1.000000
   64       -1.909935   1.000000
   65       -1.788250   1.000000
   66       -1.695509   1.000000
   67       -1.596180   1.000000
   68       -1.529143   1.000000
   69       -1.470051   1.000000
   70       -1.406221   1.000000
   71       -1.373381   1.000000
   72       -1.304910   1.000000
   73       -1.237231   1.000000
   74       -1.208931   1.000000
   75       -1.154543   1.000000
   76       -1.037130   1.000000
   77       -0.985686   1.000000
   78       -0.833482   1.000002
   79       -0.791742   1.000006
   80       -0.716167   1.000066
   81       -0.666741   1.000253
   82       -0.503782   1.007980
   83       -0.383900   1.031730
   84       -0.379785   1.032459
   85       -0.354907   1.035312
   86       -0.289689   1.016269
   87       -0.149207   0.687253
   88       -0.094467   0.461102
   89        0.000915   0.117572
   90        0.241665  -0.017400
   91        0.313731  -0.005975
   92        0.412376  -0.000803
   93        1.087768  -0.000000
   94        1.552078  -0.000000
   95        2.271528  -0.000000
   96        2.793065  -0.000000
   97        3.227713  -0.000000
   98        3.683197  -0.000000
   99        3.722072  -0.000000
  100        4.110248  -0.000000
  101        4.688375  -0.000000
  102        4.981798  -0.000000
  103        5.313989  -0.000000
  104        5.436841   0.000000
 
 -0.2000000E+00  0.2000000E+00  0.0000000E+00  0.8000000E-01
    1      -22.696647   1.000000
    2      -10.412522   1.000000
    3       -8.162348   1.000000
    4       -7.088881   1.000000
    5       -6.737611   1.000000
    6       -6.595140   1.000000
    7       -6.341134   1.000000
    8       -6.294246   1.000000
    9       -6.221013   1.000000
   10       -5.919034   1.000000
   11       -5.861480   1.000000
   12       -5.851408   1.000000
   13       -5.707690   1.000000
   14       -5.617487   1.000000
   15       -5.580352   1.000000
   16       -5.430984   1.000000
   17       -5.353785   1.000000
   18       -5.271366   1.000000
   19       -5.210372   1.000000
   20       -5.174602   1.000000
   21       -4.996312   1.000000
   22       -4.906543   1.000000
   23       -4.801377   1.000000
   24       -4.712876   1.000000
   25       -4.519751   1.000000
   26       -4.472873   1.000000
   27       -4.409880   1.000000
   28       -4.281402   1.000000
   29       -4.188845   1.000000
   30       -4.073407   1.000000
   31       -3.970471   1.000000
   32       -3.897207   1.000000
   33       -3.815281   1.000000
   34       -3.664888   1.000000
   35       -3.627841   1.000000
   36       -3.546236   1.000000
   37       -3.505206   1.000000
   38       -3.441408   1.000000
   39       -3.327038   1.000000
   40       -3.317945   1.000000
   41       -3.288456   1.000000
   42       -3.227098   1.000000
   43       -3.189224   1.000000
   44       -3.152557   1.000000
   45       -3.073488   1.000000
   46       -3.047614   1.000000
   47       -2.929721   1.000000
   48       -2.855085   1.000000
   49       -2.797229   1.000000
   50       -2.741507   1.000000
   51       -2.700256   1.000000
   52       -2.617509   1.000000
   53       -2.441643   1.000000
   54       -2.403031   1.000000
   55       -2.348330   1.000000
   56       -2.316965   1.000000
   57       -2.282576   1.000000
   58       -2.186772   1.000000
   59       -2.161721   1.000000
   60       -2.082378   1.000000
   61       -2.029218   1.000000
   62       -2.017957   1.000000
   63       -1.973929   1.000000
   64       -1.897289   1.000000
   65       -1.705212   1.000000
   66       -1.564616   1.000000
   67       -1.503091   1.000000
   68       -1.423296   1.000000
   69       -1.379898   1.000000
   70       -1.306372   1.000000
   71       -1.173224   1.000000
   72       -1.130668   1.000000
   73       -1.075753   1.000000
   74       -1.025479   1.000000
   75       -0.981515   1.000000
   76       -0.812150   1.000003
   77       -0.621164   1.000776
   78       -0.520966   1.005986
   79       -0.471957   1.012890
   80       -0.442072   1.018897
   81       -0.387989   1.030956
   82       -0.358410   1.035113
   83       -0.326668   1.033313
   84       -0.261228   0.986857
   85       -0.111554   0.533332
   86       -0.105366   0.507176
   87       -0.028686   0.206086
   88        0.029055   0.053473
   89        0.084362  -0.017751
   90        0.210822  -0.024341
   91        0.253994  -0.014884
   92        0.747402  -0.000000
   93        1.073958  -0.000000
   94        1.282335  -0.000000
   95        2.373914  -0.000000
   96        2.794514  -0.000000
   97        3.217351  -0.000000
   98        3.442562  -0.000000
   99        3.601003  -0.000000
  100        3.824567  -0.000000
  101        4.013593  -0.000000
  102        4.368867  -0.000000
  103        4.728310  -0.000000
  104        5.342540  -0.000000
 
  0.0000000E+00  0.4000000E+00  0.0000000E+00  0.8000000E-01
    1      -22.696697   1.000000
    2      -10.313224   1.000000
    3       -7.918765   1.000000
    4       -7.039837   1.000000
    5       -6.887852   1.000000
    6       -6.664026   1.000000
    7       -6.452629   1.000000
    8       -6.272837   1.000000
    9       -6.031403   1.000000
   10       -5.726241   1.000000
   11       -5.672778   1.000000
   12       -5.644002   1.000000
   13       -5.584935   1.000000
   14       -5.550596   1.000000
   15       -5.516872   1.000000
   16       -5.453279   1.000000
   17       -5.213871   1.000000
   18       -5.148220   1.000000
   19       -5.122081   1.000000
   20       -5.064821   1.000000
   21       -4.946460   1.000000
   22       -4.908176   1.000000
   23       -4.618938   1.000000
   24       -4.574032   1.000000
   25       -4.464132   1.000000
   26       -4.423357   1.000000
   27       -4.396524   1.000000
   28       -4.332651   1.000000
   29       -4.181416   1.000000
   30       -4.143859   1.000000
   31       -4.063652   1.000000
   32       -4.015376   1.000000
   33       -3.809556   1.000000
   34       -3.750905   1.000000
   35       -3.728436   1.000000
   36       -3.651945   1.000000
   37       -3.567735   1.000000
   38       -3.522756   1.000000
   39       -3.488990   1.000000
   40       -3.350738   1.000000
   41       -3.293186   1.000000
   42       -3.234579   1.000000
   43       -3.196478   1.000000
   44       -3.071364   1.000000
   45       -2.981294   1.000000
   46       -2.932547   1.000000
   47       -2.902717   1.000000
   48       -2.870464   1.000000
   49       -2.863356   1.000000
   50       -2.773481   1.000000
   51       -2.741819   1.000000
   52       -2.651086   1.000000
   53       -2.586901   1.000000
   54       -2.555655   1.000000