/home/zulissi/software/vasp/5.4.4_impi_cuda_patch0518_intel0818/bin/:/home/zulissi/software/vasp/5.4.4_impi_cuda_patch0518_intel0818/bin:/usr/local/cuda-9.0/samples-bin:/usr/local/cuda-9.0/bin:/opt/ohpc/pub/intel/intel18/compilers_and_libraries_2018.3.222/linux/mpi/intel64/bin_ohpc:/opt/ohpc/pub/intel/intel18/compilers_and_libraries_2018.3.222/linux/mpi/intel64/bin:/opt/ohpc/pub/intel/intel18/compilers_and_libraries_2018.3.222/linux/bin/intel64:/home/zulissi/GASpy_conda/bin:/opt/ohpc/pub/python/anaconda2/bin:/usr/lib64/qt-3.3/bin:/usr/local/bin:/usr/bin:/usr/local/sbin:/usr/sbin:/home/katsuyut/.local/bin:/home/katsuyut/bin:/home/katsuyut/.local/bin:/home/katsuyut/bin
/tmp
./run_vasp.py
/home/katsuyut/5.4.4
 running on   16 total cores
 distrk:  each k-point on   16 cores,    1 groups
 distr:  one band on    4 cores,    4 groups
 using from now: INCAR     
 vasp.5.4.4.18Apr17-6-g9f103f2a35 (build Aug 07 2018 15:16:41) complex          
  
 POSCAR found :  3 types and      18 ions
 scaLAPACK will be used

 ----------------------------------------------------------------------------- 
|                                                                             |
|  ADVICE TO THIS USER RUNNING 'VASP/VAMP'   (HEAR YOUR MASTER'S VOICE ...):  |
|                                                                             |
|      You enforced a specific xc-type in the INCAR file,                     |
|      a different type was found on the POTCAR file                          |
|          I HOPE YOU KNOW, WHAT YOU ARE  DOING                               |
|                                                                             |
 ----------------------------------------------------------------------------- 

 LDA part: xc-table for Pade appr. of Perdew
 POSCAR, INCAR and KPOINTS ok, starting setup
 FFT: planning ...
 WAVECAR not read
 entering main loop
       N       E                     dE             d eps       ncg     rms          rms(c)
DAV:   1     0.101295321287E+04    0.10130E+04   -0.60818E+04  2736   0.102E+03
DAV:   2    -0.219032312731E+02   -0.10349E+04   -0.96184E+03  3312   0.249E+02
DAV:   3    -0.102773237593E+03   -0.80870E+02   -0.74605E+02  3152   0.670E+01
DAV:   4    -0.105918046818E+03   -0.31448E+01   -0.30289E+01  3592   0.129E+01
DAV:   5    -0.106007563348E+03   -0.89517E-01   -0.89325E-01  3368   0.217E+00    0.401E+01
DAV:   6    -0.101440499391E+03    0.45671E+01   -0.26891E+01  3552   0.228E+01    0.297E+01
DAV:   7    -0.120908567239E+03   -0.19468E+02   -0.72659E+01  3296   0.487E+01    0.390E+01
DAV:   8    -0.108988023297E+03    0.11921E+02   -0.52054E+01  3536   0.414E+01    0.265E+01
DAV:   9    -0.107232758037E+03    0.17553E+01   -0.40831E+01  3336   0.375E+01    0.269E+01
DAV:  10    -0.104999810045E+03    0.22329E+01   -0.45465E+01  3160   0.315E+01    0.224E+01
DAV:  11    -0.994614859006E+02    0.55383E+01   -0.13873E+01  3160   0.158E+01    0.900E+00
DAV:  12    -0.992266410964E+02    0.23484E+00   -0.35485E+00  3024   0.852E+00    0.702E+00
DAV:  13    -0.989070953867E+02    0.31955E+00   -0.20181E+00  2984   0.476E+00    0.382E+00
DAV:  14    -0.988729084380E+02    0.34187E-01   -0.46409E-01  3072   0.337E+00    0.294E+00
DAV:  15    -0.988572055859E+02    0.15703E-01   -0.12472E-01  2992   0.161E+00    0.275E+00
DAV:  16    -0.988212825700E+02    0.35923E-01   -0.68740E-02  3056   0.992E-01    0.180E+00
DAV:  17    -0.988012380826E+02    0.20044E-01   -0.70556E-02  3016   0.122E+00    0.106E+00
DAV:  18    -0.987983548657E+02    0.28832E-02   -0.21328E-02  2976   0.636E-01    0.686E-01
DAV:  19    -0.987964118078E+02    0.19431E-02   -0.51597E-03  3072   0.309E-01    0.552E-01
DAV:  20    -0.987952844143E+02    0.11274E-02   -0.43081E-03  3032   0.283E-01    0.389E-01
DAV:  21    -0.987945401738E+02    0.74424E-03   -0.13364E-03  2928   0.154E-01    0.243E-01
DAV:  22    -0.987942010269E+02    0.33915E-03   -0.66801E-04  1872   0.979E-02    0.133E-01
DAV:  23    -0.987941543726E+02    0.46654E-04   -0.14627E-04  1776   0.609E-02
   1 F= -.98794154E+02 E0= -.98788427E+02  d E =-.171808E-01
Pt_111_u2_no08_CO_n1_d9.traj, -98.78842742
