PROCAR new format
# of k-points:   13         # of bands:  104         # of ions:   18

 k-point     1 :    0.00000000 0.00000000 0.00000000     weight = 0.04000000

band     1 # energy  -22.69769114 # occ.  2.00000000
 
ion      s      p      d    tot
    1  0.000  0.000  0.000  0.000
    2  0.000  0.000  0.000  0.000
    3  0.000  0.000  0.000  0.000
    4  0.000  0.000  0.000  0.000
    5  0.000  0.000  0.000  0.000
    6  0.000  0.000  0.000  0.000
    7  0.000  0.000  0.000  0.000
    8  0.000  0.000  0.000  0.000
    9  0.000  0.000  0.000  0.000
   10  0.000  0.000  0.000  0.000
   11  0.000  0.000  0.000  0.000
   12  0.000  0.000  0.000  0.000
   13  0.000  0.001  0.001  0.002
   14  0.000  0.000  0.000  0.000
   15  0.000  0.001  0.001  0.002
   16  0.000  0.000  0.000  0.000
   17  0.135  0.092  0.013  0.241
   18  0.553  0.078  0.005  0.635
tot    0.688  0.171  0.019  0.879
 
band     2 # energy  -10.57822066 # occ.  2.00000000
 
ion      s      p      d    tot
    1  0.000  0.000  0.000  0.000
    2  0.000  0.000  0.000  0.000
    3  0.000  0.000  0.000  0.000
    4  0.000  0.000  0.000  0.000
    5  0.000  0.000  0.000  0.001
    6  0.001  0.000  0.000  0.001
    7  0.001  0.000  0.000  0.001
    8  0.001  0.000  0.000  0.001
    9  0.003  0.000  0.000  0.003
   10  0.003  0.000  0.000  0.003
   11  0.007  0.001  0.001  0.009
   12  0.003  0.000  0.000  0.003
   13  0.076  0.020  0.079  0.175
   14  0.012  0.000  0.005  0.018
   15  0.076  0.020  0.079  0.175
   16  0.011  0.000  0.004  0.015
   17  0.200  0.054  0.000  0.254
   18  0.065  0.025  0.000  0.090
tot    0.459  0.121  0.170  0.750
 
band     3 # energy   -9.06598341 # occ.  2.00000000
 
ion      s      p      d    tot
    1  0.021  0.002  0.000  0.024
    2  0.021  0.002  0.000  0.023
    3  0.021  0.002  0.000  0.024
    4  0.021  0.002  0.000  0.023
    5  0.079  0.000  0.001  0.080
    6  0.074  0.000  0.001  0.075
    7  0.078  0.000  0.001  0.079
    8  0.074  0.000  0.001  0.075
    9  0.060  0.001  0.001  0.062
   10  0.063  0.001  0.001  0.065
   11  0.054  0.001  0.001  0.056
   12  0.063  0.001  0.001  0.065
   13  0.001  0.004  0.005  0.010
   14  0.009  0.002  0.001  0.012
   15  0.001  0.004  0.005  0.010
   16  0.009  0.002  0.001  0.012
   17  0.011  0.001  0.000  0.012
   18  0.004  0.005  0.000  0.009
tot    0.667  0.032  0.017  0.716
 
band     4 # energy   -7.78747373 # occ.  2.00000000
 
ion      s      p      d    tot
    1  0.043  0.001  0.003  0.048
    2  0.043  0.001  0.003  0.048
    3  0.043  0.001  0.003  0.048
    4  0.043  0.001  0.003  0.048
    5  0.021  0.006  0.005  0.032
    6  0.023  0.005  0.004  0.032
    7  0.021  0.006  0.005  0.032
    8  0.023  0.005  0.004  0.032
    9  0.037  0.003  0.008  0.049
   10  0.041  0.003  0.008  0.052
   11  0.037  0.002  0.009  0.049
   12  0.041  0.003  0.008  0.052
   13  0.018  0.004  0.007  0.030
   14  0.038  0.002  0.001  0.042
   15  0.018  0.004  0.007  0.030
   16  0.038  0.002  0.001  0.041
   17  0.016  0.001  0.000  0.017
   18  0.014  0.033  0.000  0.047
tot    0.557  0.087  0.084  0.728
 
band     5 # energy   -7.05854090 # occ.  2.00000000
 
ion      s      p      d    tot
    1  0.009  0.000  0.003  0.013
    2  0.010  0.000  0.003  0.013
    3  0.009  0.000  0.003  0.013
    4  0.011  0.000  0.003  0.013
    5  0.000  0.002  0.000  0.003
    6  0.000  0.002  0.000  0.002
    7  0.000  0.002  0.000  0.002
    8  0.000  0.002  0.000  0.002
    9  0.013  0.001  0.014  0.027
   10  0.016  0.000  0.011  0.027
   11  0.007  0.001  0.020  0.028
   12  0.016  0.000  0.011  0.027
   13  0.028  0.000  0.044  0.072
   14  0.009  0.001  0.019  0.029
   15  0.028  0.000  0.044  0.072
   16  0.007  0.001  0.015  0.022
   17  0.020  0.072  0.001  0.092
   18  0.068  0.270  0.004  0.342
tot    0.251  0.354  0.195  0.800
 
band     6 # energy   -6.72952590 # occ.  2.00000000
 
ion      s      p      d    tot
    1  0.052  0.000  0.044  0.096
    2  0.049  0.000  0.044  0.094
    3  0.052  0.000  0.044  0.096
    4  0.049  0.000  0.043  0.092
    5  0.026  0.001  0.065  0.092
    6  0.028  0.002  0.055  0.085
    7  0.023  0.001  0.063  0.088
    8  0.028  0.002  0.055  0.085
    9  0.002  0.002  0.013  0.017
   10  0.004  0.002  0.012  0.018
   11  0.002  0.001  0.014  0.016
   12  0.004  0.002  0.012  0.018
   13  0.000  0.000  0.003  0.003
   14  0.002  0.000  0.001  0.003
   15  0.000  0.000  0.003  0.003
   16  0.002  0.000  0.001  0.003
   17  0.000  0.003  0.000  0.003
   18  0.001  0.006  0.000  0.007
tot    0.323  0.022  0.473  0.818
 
band     7 # energy   -6.61952867 # occ.  2.00000000
 
ion      s      p      d    tot
    1  0.000  0.000  0.003  0.004
    2  0.001  0.000  0.002  0.003
    3  0.000  0.000  0.003  0.004
    4  0.002  0.001  0.002  0.004
    5  0.013  0.000  0.008  0.022
    6  0.000  0.000  0.022  0.022
    7  0.010  0.000  0.013  0.023
    8  0.000  0.000  0.022  0.022
    9  0.001  0.000  0.021  0.022
   10  0.001  0.000  0.034  0.035
   11  0.022  0.000  0.021  0.044
   12  0.001  0.000  0.034  0.035
   13  0.000  0.001  0.120  0.121
   14  0.020  0.000  0.040  0.061
   15  0.000  0.001  0.120  0.121
   16  0.033  0.000  0.032  0.065
   17  0.000  0.073  0.000  0.073
   18  0.000  0.086  0.002  0.088
tot    0.105  0.164  0.499  0.768
 
band     8 # energy   -6.59684196 # occ.  2.00000000
 
ion      s      p      d    tot
    1  0.002  0.000  0.002  0.004
    2  0.000  0.000  0.004  0.004
    3  0.002  0.000  0.002  0.004
    4  0.000  0.000  0.004  0.004
    5  0.000  0.000  0.024  0.025
    6  0.014  0.000  0.011  0.025
    7  0.000  0.000  0.024  0.024
    8  0.014  0.000  0.011  0.025
    9  0.000  0.000  0.042  0.042
   10  0.014  0.000  0.017  0.032
   11  0.000  0.000  0.054  0.054
   12  0.014  0.000  0.017  0.032
   13  0.033  0.002  0.055  0.090
   14  0.000  0.000  0.015  0.015
   15  0.033  0.002  0.055  0.090
   16  0.000  0.000  0.015  0.015
   17  0.000  0.122  0.001  0.123
   18  0.000  0.143  0.003  0.146
tot    0.126  0.273  0.355  0.754
 
band     9 # energy   -6.49396713 # occ.  2.00000000
 
ion      s      p      d    tot
    1  0.001  0.000  0.003  0.005
    2  0.000  0.000  0.003  0.004
    3  0.001  0.000  0.003  0.005
    4  0.001  0.001  0.003  0.004
    5  0.011  0.000  0.018  0.028
    6  0.005  0.001  0.025  0.031
    7  0.005  0.000  0.027  0.031
    8  0.005  0.001  0.025  0.031
    9  0.003  0.001  0.027  0.031
   10  0.001  0.001  0.064  0.067
   11  0.036  0.001  0.024  0.061
   12  0.001  0.001  0.064  0.067
   13  0.006  0.000  0.079  0.086
   14  0.067  0.000  0.046  0.113
   15  0.006  0.000  0.079  0.086
   16  0.054  0.000  0.047  0.101
   17  0.000  0.024  0.000  0.024
   18  0.007  0.046  0.001  0.054
tot    0.212  0.079  0.538  0.829
 
band    10 # energy   -6.40866808 # occ.  2.00000000
 
ion      s      p      d    tot
    1  0.002  0.001  0.015  0.018
    2  0.015  0.003  0.003  0.021
    3  0.002  0.001  0.015  0.018
    4  0.000  0.000  0.015  0.016
    5  0.001  0.000  0.084  0.085
    6  0.007  0.000  0.067  0.074
    7  0.049  0.001  0.015  0.065
    8  0.007  0.000  0.066  0.074
    9  0.071  0.001  0.005  0.077
   10  0.012  0.001  0.096  0.108
   11  0.001  0.001  0.103  0.105
   12  0.012  0.001  0.096  0.108
   13  0.002  0.001  0.014  0.016
   14  0.001  0.002  0.015  0.019
   15  0.002  0.001  0.014  0.016
   16  0.000  0.001  0.014  0.015
   17  0.000  0.006  0.000  0.006
   18  0.000  0.009  0.000  0.009
tot    0.184  0.029  0.637  0.850
 
band    11 # energy   -6.30123805 # occ.  2.00000000
 
ion      s      p      d    tot
    1  0.011  0.002  0.007  0.020
    2  0.000  0.000  0.016  0.016
    3  0.011  0.002  0.007  0.020
    4  0.000  0.000  0.016  0.016
    5  0.000  0.001  0.081  0.082
    6  0.011  0.000  0.028  0.038
    7  0.000  0.001  0.081  0.082
    8  0.011  0.000  0.028  0.038
    9  0.000  0.000  0.083  0.083
   10  0.042  0.001  0.032  0.075
   11  0.000  0.000  0.082  0.082
   12  0.042  0.001  0.032  0.075
   13  0.003  0.003  0.017  0.024
   14  0.000  0.002  0.022  0.024
   15  0.003  0.003  0.017  0.024
   16  0.000  0.002  0.017  0.019
   17  0.000  0.042  0.000  0.042
   18  0.000  0.057  0.001  0.058
tot    0.132  0.117  0.567  0.816
 
band    12 # energy   -6.27462174 # occ.  2.00000000
 
ion      s      p      d    tot
    1  0.001  0.001  0.015  0.017
    2  0.000  0.000  0.017  0.017
    3  0.001  0.001  0.015  0.017
    4  0.012  0.001  0.002  0.015
    5  0.035  0.001  0.023  0.059
    6  0.006  0.000  0.033  0.039
    7  0.001  0.000  0.042  0.043
    8  0.006  0.000  0.033  0.039
    9  0.001  0.001  0.099  0.102
   10  0.012  0.002  0.089  0.102
   11  0.024  0.001  0.004  0.029
   12  0.012  0.002  0.089  0.102
   13  0.003  0.003  0.040  0.046
   14  0.006  0.001  0.022  0.029
   15  0.003  0.003  0.040  0.046
   16  0.015  0.002  0.045  0.061
   17  0.000  0.028  0.000  0.029
   18  0.002  0.042  0.001  0.045
tot    0.141  0.090  0.607  0.838
 
band    13 # energy   -6.25773920 # occ.  2.00000000
 
ion      s      p      d    tot
    1  0.000  0.001  0.010  0.010
    2  0.000  0.001  0.017  0.019
    3  0.000  0.001  0.010  0.010
    4  0.000  0.001  0.017  0.018
    5  0.000  0.000  0.155  0.155
    6  0.036  0.000  0.052  0.089
    7  0.000  0.000  0.152  0.152
    8  0.036  0.000  0.052  0.089
    9  0.000  0.001  0.063  0.064
   10  0.003  0.001  0.032  0.036
   11  0.000  0.001  0.060  0.061
   12  0.003  0.001  0.032  0.036
   13  0.000  0.002  0.014  0.015
   14  0.000  0.000  0.011  0.011
   15  0.000  0.002  0.014  0.015
   16  0.000  0.000  0.010  0.011
   17  0.000  0.019  0.000  0.019
   18  0.000  0.026  0.000  0.026
tot    0.079  0.057  0.700  0.835
 
band    14 # energy   -6.24461591 # occ.  2.00000000
 
ion      s      p      d    tot
    1  0.000  0.001  0.019  0.021
    2  0.000  0.001  0.022  0.024
    3  0.000  0.001  0.019  0.021
    4  0.001  0.000  0.004  0.005
    5  0.038  0.000  0.009  0.047
    6  0.008  0.000  0.113  0.121
    7  0.001  0.000  0.140  0.141
    8  0.008  0.000  0.113  0.121
    9  0.000  0.001  0.088  0.089
   10  0.002  0.001  0.078  0.081
   11  0.019  0.000  0.011  0.030
   12  0.002  0.001  0.078  0.081
   13  0.001  0.000  0.014  0.015
   14  0.001  0.001  0.016  0.018
   15  0.001  0.000  0.014  0.015
   16  0.000  0.000  0.001  0.001
   17  0.000  0.002  0.000  0.002
   18  0.000  0.004  0.000  0.005
tot    0.083  0.015  0.739  0.837
 
band    15 # energy   -6.14585874 # occ.  2.00000000
 
ion      s      p      d    tot
    1  0.000  0.001  0.021  0.023
    2  0.001  0.000  0.005  0.006
    3  0.000  0.001  0.021  0.023
    4  0.000  0.001  0.022  0.024
    5  0.002  0.000  0.141  0.143
    6  0.005  0.000  0.121  0.126
    7  0.035  0.000  0.012  0.047
    8  0.005  0.000  0.121  0.126
    9  0.018  0.000  0.019  0.037
   10  0.001  0.002  0.059  0.062
   11  0.000  0.001  0.056  0.058
   12  0.001  0.002  0.059  0.062
   13  0.000  0.002  0.014  0.016
   14  0.014  0.000  0.001  0.015
   15  0.000  0.002  0.014  0.016
   16  0.002  0.001  0.009  0.011
   17  0.000  0.015  0.000  0.015
   18  0.001  0.024  0.000  0.026
tot    0.086  0.052  0.697  0.835
 
band    16 # energy   -5.81151720 # occ.  2.00000000
 
ion      s      p      d    tot
    1  0.001  0.001  0.016  0.018
    2  0.011  0.003  0.010  0.024
    3  0.001  0.001  0.016  0.018
    4  0.002  0.002  0.017  0.021
    5  0.000  0.000  0.104  0.104
    6  0.000  0.000  0.105  0.106
    7  0.001  0.002  0.051  0.053
    8  0.000  0.000  0.105  0.106
    9  0.000  0.002  0.061  0.063
   10  0.000  0.000  0.098  0.098
   11  0.000  0.000  0.095  0.096
   12  0.000  0.000  0.098  0.098
   13  0.000  0.001  0.015  0.017
   14  0.000  0.002  0.026  0.029
   15  0.000  0.001  0.015  0.017
   16  0.002  0.001  0.015  0.018
   17  0.000  0.001  0.000  0.001
   18  0.000  0.001  0.000  0.001
tot    0.019  0.020  0.847  0.887
 
band    17 # energy   -5.78599005 # occ.  2.00000000
 
ion      s      p      d    tot
    1  0.002  0.001  0.010  0.013
    2  0.000  0.001  0.009  0.010
    3  0.002  0.001  0.010  0.013
    4  0.009  0.003  0.016  0.028
    5  0.000  0.002  0.059  0.061
    6  0.000  0.000  0.115  0.116
    7  0.001  0.000  0.135  0.136
    8  0.000  0.000  0.115  0.116
    9  0.000  0.000  0.098  0.098
   10  0.000  0.001  0.085  0.085
   11  0.000  0.002  0.070  0.072
   12  0.000  0.001  0.085  0.085
   13  0.001  0.001  0.009  0.011
   14  0.000  0.001  0.009  0.010
   15  0.001  0.001  0.009  0.011
   16  0.009  0.002  0.008  0.019
   17  0.000  0.000  0.000  0.000
   18  0.000  0.001  0.000  0.001
tot    0.026  0.017  0.844  0.888
 
band    18 # energy   -5.72929514 # occ.  2.00000000
 
ion      s      p      d    tot
    1  0.001  0.002  0.015  0.018
    2  0.000  0.002  0.021  0.023
    3  0.001  0.002  0.015  0.018
    4  0.000  0.002  0.020  0.022
    5  0.000  0.000  0.081  0.081
    6  0.004  0.001  0.069  0.073
    7  0.000  0.000  0.080  0.080
    8  0.004  0.001  0.069  0.073
    9  0.000  0.001  0.119  0.121
   10  0.000  0.001  0.089  0.090
   11  0.000  0.001  0.110  0.110
   12  0.000  0.001  0.089  0.090
   13  0.000  0.002  0.009  0.012
   14  0.000  0.000  0.014  0.014
   15  0.000  0.002  0.009  0.012
   16  0.000  0.001  0.015  0.015
   17  0.000  0.009  0.000  0.009
   18  0.000  0.019  0.000  0.019
tot    0.012  0.044  0.822  0.879
 
band    19 # energy   -5.63659497 # occ.  2.00000000
 
ion      s      p      d    tot
    1  0.022  0.000  0.057  0.078
    2  0.000  0.000  0.135  0.135
    3  0.022  0.000  0.057  0.078
    4  0.000  0.000  0.133  0.133
    5  0.000  0.002  0.025  0.026
    6  0.000  0.001  0.025  0.027
    7  0.000  0.002  0.025  0.027
    8  0.000  0.001  0.025  0.027
    9  0.000  0.000  0.028  0.028
   10  0.002  0.000  0.012  0.015
   11  0.000  0.000  0.031  0.032
   12  0.002  0.000  0.012  0.015
   13  0.009  0.001  0.035  0.045
   14  0.000  0.001  0.076  0.076
   15  0.009  0.001  0.035  0.045
   16  0.000  0.000  0.071  0.071
   17  0.000  0.003  0.000  0.003
   18  0.000  0.005  0.000  0.005
tot    0.066  0.016  0.782  0.864
 
band    20 # energy   -5.61356296 # occ.  2.00000000
 
ion      s      p      d    tot
    1  0.008  0.000  0.167  0.175
    2  0.002  0.000  0.189  0.191
    3  0.008  0.000  0.167  0.175
    4  0.051  0.000  0.024  0.076
    5  0.001  0.002  0.025  0.028
    6  0.000  0.002  0.014  0.016
    7  0.000  0.003  0.012  0.015
    8  0.000  0.002  0.014  0.016
    9  0.000  0.000  0.032  0.032
   10  0.002  0.000  0.030  0.032
   11  0.010  0.000  0.002  0.011
   12  0.002  0.000  0.030  0.032
   13  0.001  0.000  0.017  0.018
   14  0.000  0.001  0.020  0.021
   15  0.001  0.000  0.017  0.018
   16  0.001  0.000  0.004  0.005
   17  0.000  0.001  0.000  0.001
   18  0.000  0.002  0.000  0.002
tot    0.085  0.013  0.765  0.864
 
band    21 # energy   -5.59052799 # occ.  2.00000000
 
ion      s      p      d    tot
    1  0.010  0.000  0.175  0.185
    2  0.053  0.000  0.029  0.082
    3  0.010  0.000  0.175  0.185
    4  0.001  0.000  0.203  0.204
    5  0.000  0.003  0.003  0.006
    6  0.001  0.003  0.007  0.010
    7  0.003  0.003  0.030  0.036
    8  0.001  0.003  0.007  0.010
    9  0.014  0.000  0.001  0.015
   10  0.002  0.000  0.027  0.030
   11  0.000  0.000  0.031  0.031
   12  0.002  0.000  0.027  0.030
   13  0.000  0.001  0.009  0.010
   14  0.003  0.000  0.001  0.003
   15  0.000  0.001  0.009  0.010
   16  0.000  0.001  0.013  0.014
   17  0.000  0.001  0.000  0.001
   18  0.000  0.001  0.000  0.001
tot    0.099  0.017  0.748  0.865
 
band    22 # energy   -5.54058339 # occ.  2.00000000
 
ion      s      p      d    tot
    1  0.019  0.001  0.028  0.047
    2  0.000  0.000  0.079  0.080
    3  0.019  0.001  0.028  0.047
    4  0.000  0.000  0.078  0.079
    5  0.000  0.001  0.012  0.014
    6  0.005  0.002  0.005  0.012
    7  0.000  0.001  0.012  0.014
    8  0.005  0.002  0.005  0.012
    9  0.000  0.001  0.015  0.016
   10  0.008  0.003  0.007  0.018
   11  0.000  0.001  0.014  0.015
   12  0.008  0.003  0.007  0.018
   13  0.021  0.002  0.067  0.090
   14  0.000  0.000  0.146  0.146
   15  0.020  0.002  0.067  0.090
   16  0.000  0.001  0.142  0.143
   17  0.000  0.007  0.000  0.008
   18  0.000  0.014  0.000  0.015
tot    0.104  0.044  0.713  0.861
 
band    23 # energy   -5.25555194 # occ.  2.00000000
 
ion      s      p      d    tot
    1  0.000  0.000  0.002  0.002
    2  0.001  0.000  0.005  0.006
    3  0.000  0.000  0.002  0.002
    4  0.000  0.000  0.000  0.001
    5  0.001  0.000  0.014  0.015
    6  0.000  0.000  0.014  0.014
    7  0.002  0.000  0.005  0.006
    8  0.000  0.000  0.014  0.014
    9  0.001  0.005  0.019  0.024
   10  0.000  0.001  0.011  0.012
   11  0.000  0.000  0.012  0.013
   12  0.000  0.001  0.011  0.012
   13  0.003  0.001  0.137  0.141
   14  0.023  0.000  0.012  0.035
   15  0.003  0.001  0.137  0.141
   16  0.010  0.000  0.132  0.143
   17  0.000  0.049  0.003  0.053
   18  0.000  0.161  0.002  0.163
tot    0.043  0.221  0.531  0.796
 
band    24 # energy   -5.18615683 # occ.  2.00000000
 
ion      s      p      d    tot
    1  0.000  0.001  0.037  0.038
    2  0.000  0.001  0.038  0.039
    3  0.000  0.001  0.037  0.038
    4  0.001  0.000  0.008  0.009
    5  0.004  0.002  0.010  0.016
    6  0.001  0.001  0.028  0.029
    7  0.000  0.000  0.026  0.026
    8  0.001  0.001  0.028  0.029
    9  0.000  0.005  0.011  0.016
   10  0.000  0.003  0.010  0.014
   11  0.004  0.000  0.009  0.013
   12  0.000  0.003  0.010  0.014
   13  0.010  0.005  0.124  0.139
   14  0.000  0.001  0.133  0.134
   15  0.010  0.005  0.124  0.139
   16  0.015  0.001  0.039  0.055
   17  0.002  0.028  0.002  0.032
   18  0.001  0.061  0.001  0.063
tot    0.052  0.118  0.674  0.844
 
band    25 # energy   -4.73250442 # occ.  2.00000000
 
ion      s      p      d    tot
    1  0.000  0.002  0.041  0.043
    2  0.000  0.002  0.077  0.079
    3  0.000  0.002  0.041  0.043
    4  0.000  0.002  0.075  0.077
    5  0.000  0.004  0.045  0.049
    6  0.001  0.006  0.020  0.027
    7  0.000  0.004  0.045  0.049
    8  0.001  0.006  0.020  0.027
    9  0.000  0.003  0.048  0.051
   10  0.001  0.006  0.032  0.039
   11  0.000  0.004  0.051  0.055
   12  0.001  0.006  0.032  0.039
   13  0.000  0.002  0.039  0.041
   14  0.000  0.003  0.090  0.092
   15  0.000  0.002  0.039  0.041
   16  0.000  0.003  0.089  0.092
   17  0.000  0.002  0.000  0.002
   18  0.000  0.009  0.000  0.009
tot    0.004  0.067  0.785  0.855
 
band    26 # energy   -4.71029230 # occ.  2.00000000
 
ion      s      p      d    tot
    1  0.000  0.002  0.065  0.068
    2  0.000  0.002  0.043  0.045
    3  0.000  0.002  0.065  0.068
    4  0.000  0.002  0.077  0.080
    5  0.000  0.005  0.037  0.042
    6  0.001  0.006  0.030  0.037
    7  0.002  0.007  0.021  0.029
    8  0.001  0.006  0.030  0.037
    9  0.000  0.003  0.025  0.028
   10  0.001  0.004  0.046  0.050
   11  0.000  0.005  0.069  0.074
   12  0.001  0.004  0.046  0.050
   13  0.001  0.003  0.039  0.043
   14  0.002  0.004  0.043  0.049
   15  0.001  0.003  0.039  0.043
   16  0.000  0.004  0.049  0.053
   17  0.000  0.007  0.001  0.008
   18  0.000  0.037  0.000  0.037
tot    0.009  0.104  0.727  0.841
 
band    27 # energy   -4.50958226 # occ.  2.00000000
 
ion      s      p      d    tot
    1  0.000  0.002  0.087  0.089
    2  0.000  0.001  0.048  0.050
    3  0.000  0.002  0.087  0.089
    4  0.002  0.001  0.026  0.029
    5  0.001  0.008  0.009  0.019
    6  0.000  0.006  0.021  0.027
    7  0.001  0.009  0.011  0.020
    8  0.000  0.006  0.021  0.027
    9  0.000  0.001  0.025  0.026
   10  0.000  0.002  0.089  0.091
   11  0.006  0.003  0.033  0.041
   12  0.000  0.002  0.089  0.091
   13  0.000  0.010  0.027  0.037
   14  0.000  0.005  0.091  0.097
   15  0.000  0.010  0.027  0.037
   16  0.001  0.003  0.029  0.033
   17  0.004  0.014  0.001  0.019
   18  0.000  0.029  0.000  0.029
tot    0.017  0.115  0.720  0.851
 
band    28 # energy   -3.87253019 # occ.  2.00000000
 
ion      s      p      d    tot
    1  0.000  0.000  0.020  0.020
    2  0.000  0.000  0.029  0.029
    3  0.000  0.000  0.020  0.020
    4  0.001  0.000  0.013  0.014
    5  0.000  0.002  0.002  0.004
    6  0.000  0.004  0.011  0.015
    7  0.000  0.000  0.003  0.003
    8  0.000  0.004  0.011  0.015
    9  0.001  0.002  0.087  0.089
   10  0.000  0.001  0.047  0.049
   11  0.004  0.007  0.135  0.146
   12  0.000  0.001  0.047  0.049
   13  0.000  0.003  0.133  0.136
   14  0.000  0.002  0.097  0.100
   15  0.000  0.003  0.133  0.136
   16  0.000  0.000  0.034  0.035
   17  0.000  0.002  0.001  0.003
   18  0.000  0.022  0.000  0.022
tot    0.008  0.055  0.822  0.885
 
band    29 # energy   -3.82291459 # occ.  2.00000000
 
ion      s      p      d    tot
    1  0.000  0.001  0.039  0.040
    2  0.000  0.000  0.092  0.092
    3  0.000  0.001  0.039  0.040
    4  0.000  0.000  0.093  0.093
    5  0.000  0.002  0.017  0.019
    6  0.001  0.008  0.011  0.019
    7  0.000  0.002  0.016  0.017
    8  0.001  0.008  0.011  0.019
    9  0.000  0.002  0.054  0.056
   10  0.001  0.006  0.032  0.039
   11  0.000  0.001  0.041  0.042
   12  0.001  0.006  0.032  0.039
   13  0.000  0.001  0.066  0.067
   14  0.000  0.000  0.108  0.109
   15  0.000  0.001  0.066  0.067
   16  0.000  0.000  0.099  0.099
   17  0.000  0.000  0.000  0.001
   18  0.000  0.007  0.000  0.007
tot    0.003  0.046  0.816  0.865
 
band    30 # energy   -3.72424380 # occ.  2.00000000
 
ion      s      p      d    tot
    1  0.000  0.001  0.097  0.098
    2  0.000  0.001  0.055  0.056
    3  0.000  0.001  0.097  0.098
    4  0.000  0.000  0.108  0.109
    5  0.000  0.003  0.078  0.081
    6  0.000  0.002  0.087  0.089
    7  0.001  0.005  0.079  0.085
    8  0.000  0.002  0.087  0.089
    9  0.000  0.003  0.043  0.046
   10  0.000  0.002  0.008  0.010
   11  0.001  0.000  0.045  0.046
   12  0.000  0.002  0.008  0.010
   13  0.000  0.001  0.021  0.021
   14  0.000  0.000  0.009  0.010
   15  0.000  0.001  0.021  0.021
   16  0.000  0.001  0.017  0.018
   17  0.000  0.000  0.000  0.001
   18  0.000  0.004  0.000  0.004
tot    0.004  0.029  0.862  0.895
 
band    31 # energy   -3.69114154 # occ.  2.00000000
 
ion      s      p      d    tot
    1  0.000  0.000  0.077  0.077
    2  0.000  0.001  0.063  0.063
    3  0.000  0.000  0.077  0.077
    4  0.000  0.001  0.039  0.041
    5  0.001  0.001  0.097  0.099
    6  0.000  0.001  0.086  0.087
    7  0.001  0.001  0.130  0.132
    8  0.000  0.001  0.086  0.087
    9  0.000  0.000  0.041  0.042
   10  0.000  0.000  0.039  0.039
   11  0.000  0.003  0.085  0.088
   12  0.000  0.000  0.039  0.039
   13  0.000  0.000  0.012  0.012
   14  0.000  0.000  0.004  0.005
   15  0.000  0.000  0.012  0.012
   16  0.000  0.000  0.006  0.006
   17  0.000  0.000  0.000  0.000
   18  0.000  0.007  0.000  0.007
tot    0.003  0.017  0.891  0.911
 
band    32 # energy   -3.67100813 # occ.  2.00000000
 
ion      s      p      d    tot
    1  0.000  0.001  0.033  0.034
    2  0.000  0.000  0.060  0.060
    3  0.000  0.001  0.033  0.034
    4  0.000  0.000  0.058  0.058
    5  0.000  0.001  0.080  0.081
    6  0.001  0.000  0.101  0.102
    7  0.000  0.001  0.079  0.079
    8  0.001  0.000  0.101  0.102
    9  0.000  0.000  0.050  0.050
   10  0.001  0.001  0.081  0.083
   11  0.000  0.000  0.067  0.067
   12  0.001  0.001  0.081  0.083
   13  0.000  0.000  0.022  0.023
   14  0.000  0.000  0.018  0.018
   15  0.000  0.000  0.022  0.023
   16  0.000  0.000  0.020  0.021
   17  0.000  0.000  0.000  0.000
   18  0.000  0.003  0.000  0.003
tot    0.004  0.009  0.905  0.918
 
band    33 # energy   -3.64899344 # occ.  2.00000000
 
ion      s      p      d    tot
    1  0.001  0.000  0.004  0.005
    2  0.001  0.000  0.004  0.005
    3  0.001  0.000  0.004  0.005
    4  0.000  0.000  0.003  0.003
    5  0.000  0.005  0.094  0.099
    6  0.000  0.001  0.018  0.020
    7  0.000  0.004  0.075  0.079
    8  0.000  0.001  0.018  0.020
    9  0.001  0.000  0.086  0.087
   10  0.002  0.000  0.176  0.178
   11  0.000  0.000  0.048  0.049
   12  0.002  0.000  0.176  0.178
   13  0.000  0.001  0.048  0.049
   14  0.000  0.002  0.044  0.047
   15  0.000  0.001  0.048  0.049
   16  0.000  0.003  0.042  0.046
   17  0.000  0.000  0.000  0.000
   18  0.000  0.003  0.000  0.003
tot    0.009  0.024  0.888  0.921
 
band    34 # energy   -3.58064846 # occ.  2.00000000
 
ion      s      p      d    tot
    1  0.000  0.002  0.051  0.053
    2  0.000  0.003  0.072  0.076
    3  0.000  0.002  0.051  0.053
    4  0.001  0.000  0.012  0.014
    5  0.003  0.002  0.073  0.078
    6  0.002  0.000  0.057  0.060
    7  0.001  0.001  0.053  0.054
    8  0.002  0.000  0.057  0.060
    9  0.002  0.014  0.035  0.051
   10  0.000  0.006  0.007  0.012
   11  0.001  0.001  0.024  0.026
   12  0.000  0.006  0.007  0.012
   13  0.002  0.002  0.099  0.104
   14  0.000  0.001  0.028  0.029
   15  0.002  0.002  0.099  0.104
   16  0.001  0.002  0.082  0.086
   17  0.001  0.004  0.001  0.006
   18  0.000  0.009  0.000  0.009
tot    0.019  0.057  0.808  0.885
 
band    35 # energy   -3.46068924 # occ.  2.00000000
 
ion      s      p      d    tot
    1  0.000  0.000  0.013  0.013
    2  0.000  0.000  0.019  0.019
    3  0.000  0.000  0.013  0.013
    4  0.000  0.001  0.027  0.028
    5  0.000  0.000  0.102  0.102
    6  0.000  0.000  0.087  0.088
    7  0.000  0.001  0.104  0.106
    8  0.000  0.000  0.088  0.088
    9  0.000  0.000  0.105  0.105
   10  0.000  0.001  0.046  0.047
   11  0.001  0.002  0.119  0.122
   12  0.000  0.001  0.046  0.047
   13  0.000  0.001  0.018  0.020
   14  0.000  0.000  0.039  0.040
   15  0.000  0.001  0.018  0.020
   16  0.000  0.000  0.066  0.066
   17  0.001  0.001  0.000  0.001
   18  0.000  0.003  0.000  0.003
tot    0.003  0.014  0.910  0.927
 
band    36 # energy   -3.46035478 # occ.  2.00000000
 
ion      s      p      d    tot
    1  0.000  0.000  0.012  0.012
    2  0.000  0.000  0.018  0.019
    3  0.000  0.000  0.012  0.012
    4  0.000  0.000  0.008  0.009
    5  0.000  0.000  0.093  0.093
    6  0.000  0.000  0.092  0.092
    7  0.000  0.000  0.109  0.109
    8  0.000  0.000  0.092  0.092
    9  0.000  0.000  0.101  0.101
   10  0.000  0.000  0.105  0.106
   11  0.000  0.000  0.111  0.111
   12  0.000  0.000  0.105  0.105
   13  0.000  0.000  0.017  0.017
   14  0.000  0.000  0.013  0.013
   15  0.000  0.000  0.017  0.017
   16  0.000  0.000  0.029  0.029
   17  0.000  0.000  0.000  0.000
   18  0.000  0.000  0.000  0.000
tot    0.000  0.001  0.935  0.936
 
band    37 # energy   -3.41435277 # occ.  2.00000000
 
ion      s      p      d    tot
    1  0.000  0.001  0.041  0.042
    2  0.000  0.000  0.015  0.016
    3  0.000  0.001  0.041  0.042
    4  0.001  0.003  0.067  0.071
    5  0.000  0.000  0.026  0.027
    6  0.001  0.001  0.092  0.094
    7  0.001  0.004  0.030  0.034
    8  0.001  0.001  0.092  0.094
    9  0.000  0.000  0.070  0.070
   10  0.001  0.002  0.064  0.066
   11  0.005  0.005  0.063  0.074
   12  0.001  0.002  0.064  0.066
   13  0.000  0.006  0.023  0.029
   14  0.001  0.004  0.068  0.072
   15  0.000  0.006  0.023  0.029
   16  0.000  0.002  0.062  0.064
   17  0.003  0.005  0.000  0.008
   18  0.000  0.009  0.000  0.009
tot    0.015  0.052  0.842  0.908
 
band    38 # energy   -3.37244916 # occ.  2.00000000
 
ion      s      p      d    tot
    1  0.000  0.000  0.014  0.015
    2  0.000  0.000  0.002  0.002
    3  0.000  0.000  0.014  0.015
    4  0.000  0.000  0.002  0.002
    5  0.000  0.000  0.148  0.148
    6  0.000  0.000  0.084  0.084
    7  0.000  0.000  0.140  0.141
    8  0.000  0.000  0.084  0.084
    9  0.000  0.000  0.076  0.076
   10  0.000  0.000  0.135  0.135
   11  0.000  0.000  0.064  0.064
   12  0.000  0.000  0.135  0.135
   13  0.000  0.000  0.003  0.003
   14  0.000  0.000  0.020  0.020
   15  0.000  0.000  0.003  0.003
   16  0.000  0.000  0.017  0.017
   17  0.000  0.000  0.000  0.000
   18  0.000  0.000  0.000  0.000
tot    0.000  0.002  0.943  0.945
 
band    39 # energy   -3.33861090 # occ.  2.00000000
 
ion      s      p      d    tot
    1  0.000  0.000  0.008  0.008
    2  0.000  0.000  0.010  0.010
    3  0.000  0.000  0.008  0.008
    4  0.000  0.000  0.006  0.006
    5  0.000  0.000  0.129  0.130
    6  0.000  0.000  0.113  0.113
    7  0.000  0.000  0.095  0.095
    8  0.000  0.000  0.113  0.113
    9  0.000  0.000  0.128  0.128
   10  0.000  0.000  0.102  0.102
   11  0.000  0.000  0.095  0.096
   12  0.000  0.000  0.102  0.102
   13  0.000  0.000  0.008  0.008
   14  0.000  0.000  0.001  0.001
   15  0.000  0.000  0.008  0.008
   16  0.000  0.000  0.013  0.013
   17  0.000  0.000  0.000  0.000
   18  0.000  0.000  0.000  0.000
tot    0.001  0.003  0.939  0.943
 
band    40 # energy   -3.20929090 # occ.  2.00000000
 
ion      s      p      d    tot
    1  0.000  0.000  0.020  0.020
    2  0.000  0.000  0.015  0.015
    3  0.000  0.000  0.020  0.020
    4  0.000  0.000  0.004  0.004
    5  0.000  0.000  0.017  0.018
    6  0.000  0.000  0.094  0.094
    7  0.000  0.000  0.066  0.066
    8  0.000  0.000  0.094  0.094
    9  0.000  0.000  0.046  0.046
   10  0.000  0.000  0.086  0.086
   11  0.000  0.000  0.014  0.014
   12  0.000  0.000  0.086  0.086
   13  0.000  0.000  0.106  0.106
   14  0.000  0.000  0.085  0.085
   15  0.000  0.000  0.106  0.106
   16  0.000  0.000  0.074  0.074
   17  0.000  0.000  0.000  0.000
   18  0.000  0.000  0.000  0.000
tot    0.000  0.002  0.933  0.936
 
band    41 # energy   -3.18043171 # occ.  2.00000000
 
ion      s      p      d    tot
    1  0.000  0.000  0.009  0.009
    2  0.000  0.000  0.026  0.026
    3  0.000  0.000  0.009  0.009
    4  0.000  0.001  0.041  0.042
    5  0.000  0.000  0.122  0.122
    6  0.000  0.001  0.049  0.050
    7  0.000  0.000  0.150  0.151
    8  0.000  0.001  0.049  0.050
    9  0.000  0.000  0.129  0.130
   10  0.000  0.000  0.042  0.042