<?xml version="1.0" encoding="ISO-8859-1"?>
<modeling>
 <generator>
  <i name="program" type="string">vasp </i>
  <i name="version" type="string">5.4.4.18Apr17-6-g9f103f2a35  </i>
  <i name="subversion" type="string">(build Aug 07 2018 15:16:41) complex            parallel </i>
  <i name="platform" type="string">LinuxIFC </i>
  <i name="date" type="string">2019 10 18 </i>
  <i name="time" type="string">01:18:33 </i>
 </generator>
 <incar>
  <i type="string" name="PREC">normal</i>
  <i type="int" name="IBRION">     2</i>
  <i name="EDIFFG">     -0.03000000</i>
  <i type="int" name="NSW">     0</i>
  <i type="int" name="ISIF">     0</i>
  <i type="int" name="ISYM">     0</i>
  <i name="ENCUT">    350.00000000</i>
  <v name="RWIGS">      1.50000000      0.80000000      0.80000000</v>
  <i type="string" name="LREAL"> Auto</i>
  <i type="logical" name="LWAVE"> F  </i>
  <i type="logical" name="LCHARG"> F  </i>
  <i type="int" name="LORBIT">     0</i>
  <v type="int" name="KPOINT_BSE">    -1     0     0     0</v>
  <i type="string" name="GGA"> RP</i>
 </incar>
 <structure name="primitive_cell" >
  <crystal>
   <varray name="basis" >
    <v>       5.64384424       0.00000000       0.00000000 </v>
    <v>       2.82192212       4.88771248       0.00000000 </v>
    <v>       0.00000000       0.00000000      26.91226928 </v>
   </varray>
   <i name="volume">    742.38807929 </i>
   <varray name="rec_basis" >
    <v>       0.17718420      -0.10229734       0.00000000 </v>
    <v>       0.00000000       0.20459469       0.00000000 </v>
    <v>       0.00000000       0.00000000       0.03715777 </v>
   </varray>
  </crystal>
  <varray name="positions" >
   <v>       0.00000000       0.00000000       0.37157773 </v>
   <v>       0.16666667       0.16666667       0.45719258 </v>
   <v>       0.16666667      -0.33333333       0.45719258 </v>
   <v>      -0.33333333       0.16666667       0.45719258 </v>
   <v>       0.00000000      -0.50000000       0.37157773 </v>
   <v>      -0.50000000      -0.50000000       0.37157773 </v>
   <v>      -0.50000000       0.00000000       0.37157773 </v>
   <v>      -0.33333333      -0.33333333       0.45719258 </v>
   <v>       0.33169178      -0.16514446      -0.45783040 </v>
   <v>      -0.16612238       0.33306014      -0.45779683 </v>
   <v>      -0.15823315      -0.17088409      -0.45517018 </v>
   <v>       0.33169125       0.33345140      -0.45783052 </v>
   <v>      -0.00266584       0.00214325      -0.36565386 </v>
   <v>       0.49023277      -0.49511761      -0.37322033 </v>
   <v>      -0.49203809      -0.00398127      -0.37323048 </v>
   <v>      -0.00266786      -0.49947604      -0.36565449 </v>
   <v>       0.00437955       0.24781286      -0.31152910 </v>
   <v>       0.00328756       0.24836371      -0.26740873 </v>
  </varray>
 </structure>
 <varray name="primitive_index" >
  <v type="int" >        1 </v>
  <v type="int" >        5 </v>
  <v type="int" >        7 </v>
  <v type="int" >        6 </v>
  <v type="int" >        3 </v>
  <v type="int" >        4 </v>
  <v type="int" >        2 </v>
  <v type="int" >        8 </v>
  <v type="int" >       12 </v>
  <v type="int" >        9 </v>
  <v type="int" >       11 </v>
  <v type="int" >       10 </v>
  <v type="int" >       13 </v>
  <v type="int" >       16 </v>
  <v type="int" >       14 </v>
  <v type="int" >       15 </v>
  <v type="int" >       17 </v>
  <v type="int" >       18 </v>
 </varray>
 <kpoints>
  <generation param="Monkhorst-Pack">
   <v type="int" name="divisions">       5        5        1 </v>
   <v name="usershift">      0.00000000       0.00000000       0.00000000 </v>
   <v name="genvec1">      0.20000000       0.00000000       0.00000000 </v>
   <v name="genvec2">      0.00000000       0.20000000       0.00000000 </v>
   <v name="genvec3">      0.00000000       0.00000000       1.00000000 </v>
   <v name="shift">      0.00000000       0.00000000       0.00000000 </v>
  </generation>
  <varray name="kpointlist" >
   <v>       0.00000000       0.00000000       0.00000000 </v>
   <v>       0.20000000       0.00000000       0.00000000 </v>
   <v>       0.40000000       0.00000000       0.00000000 </v>
   <v>       0.00000000       0.20000000       0.00000000 </v>
   <v>       0.20000000       0.20000000       0.00000000 </v>
   <v>       0.40000000       0.20000000       0.00000000 </v>
   <v>      -0.40000000       0.20000000       0.00000000 </v>
   <v>      -0.20000000       0.20000000       0.00000000 </v>
   <v>       0.00000000       0.40000000       0.00000000 </v>
   <v>       0.20000000       0.40000000       0.00000000 </v>
   <v>       0.40000000       0.40000000       0.00000000 </v>
   <v>      -0.40000000       0.40000000       0.00000000 </v>
   <v>      -0.20000000       0.40000000       0.00000000 </v>
  </varray>
  <varray name="weights" >
   <v>       0.04000000 </v>
   <v>       0.08000000 </v>
   <v>       0.08000000 </v>
   <v>       0.08000000 </v>
   <v>       0.08000000 </v>
   <v>       0.08000000 </v>
   <v>       0.08000000 </v>
   <v>       0.08000000 </v>
   <v>       0.08000000 </v>
   <v>       0.08000000 </v>
   <v>       0.08000000 </v>
   <v>       0.08000000 </v>
   <v>       0.08000000 </v>
  </varray>
 </kpoints>
 <parameters>
  <separator name="general" >
   <i type="string" name="SYSTEM">unknown system</i>
   <i type="logical" name="LCOMPAT"> F  </i>
  </separator>
  <separator name="electronic" >
   <i type="string" name="PREC">normal</i>
   <i name="ENMAX">    350.00000000</i>
   <i name="ENAUG">    644.87300000</i>
   <i name="EDIFF">      0.00010000</i>
   <i type="int" name="IALGO">    38</i>
   <i type="int" name="IWAVPR">    10</i>
   <i type="int" name="NBANDS">   104</i>
   <i name="NELECT">    170.00000000</i>
   <i type="int" name="TURBO">     0</i>
   <i type="int" name="IRESTART">     0</i>
   <i type="int" name="NREBOOT">     0</i>
   <i type="int" name="NMIN">     0</i>
   <i name="EREF">      0.00000000</i>
   <separator name="electronic smearing" >
    <i type="int" name="ISMEAR">     1</i>
    <i name="SIGMA">      0.20000000</i>
    <i name="KSPACING">      0.50000000</i>
    <i type="logical" name="KGAMMA"> T  </i>
   </separator>
   <separator name="electronic projectors" >
    <i type="logical" name="LREAL"> T  </i>
    <v name="ROPT">     -0.00050000     -0.00050000     -0.00050000</v>
    <i type="int" name="LMAXPAW">  -100</i>
    <i type="int" name="LMAXMIX">     2</i>
    <i type="logical" name="NLSPLINE"> F  </i>
   </separator>
   <separator name="electronic startup" >
    <i type="int" name="ISTART">     0</i>
    <i type="int" name="ICHARG">     2</i>
    <i type="int" name="INIWAV">     1</i>
   </separator>
   <separator name="electronic spin" >
    <i type="int" name="ISPIN">     1</i>
    <i type="logical" name="LNONCOLLINEAR"> F  </i>
    <v name="MAGMOM">      1.00000000      1.00000000      1.00000000      1.00000000      1.00000000      1.00000000      1.00000000      1.00000000      1.00000000      1.00000000      1.00000000      1.00000000      1.00000000      1.00000000      1.00000000      1.00000000      1.00000000      1.00000000</v>
    <i name="NUPDOWN">     -1.00000000</i>
    <i type="logical" name="LSORBIT"> F  </i>
    <v name="SAXIS">      0.00000000      0.00000000      1.00000000</v>
    <i type="logical" name="LSPIRAL"> F  </i>
    <v name="QSPIRAL">      0.00000000      0.00000000      0.00000000</v>
    <i type="logical" name="LZEROZ"> F  </i>
   </separator>
   <separator name="electronic exchange-correlation" >
    <i type="logical" name="LASPH"> F  </i>
    <i type="logical" name="LMETAGGA"> F  </i>
   </separator>
   <separator name="electronic convergence" >
    <i type="int" name="NELM">    60</i>
    <i type="int" name="NELMDL">    -5</i>
    <i type="int" name="NELMIN">     2</i>
    <i name="ENINI">    350.00000000</i>
    <separator name="electronic convergence detail" >
     <i type="logical" name="LDIAG"> T  </i>
     <i type="logical" name="LSUBROT"> F  </i>
     <i name="WEIMIN">      0.00000000</i>
     <i name="EBREAK">      0.00000024</i>
     <i name="DEPER">      0.30000000</i>
     <i type="int" name="NRMM">     4</i>
     <i name="TIME">      0.40000000</i>
    </separator>
   </separator>
   <separator name="electronic mixer" >
    <i name="AMIX">      0.40000000</i>
    <i name="BMIX">      1.00000000</i>
    <i name="AMIN">      0.10000000</i>
    <i name="AMIX_MAG">      1.60000000</i>
    <i name="BMIX_MAG">      1.00000000</i>
    <separator name="electronic mixer details" >
     <i type="int" name="IMIX">     4</i>
     <i type="logical" name="MIXFIRST"> F  </i>
     <i type="int" name="MAXMIX">   -45</i>
     <i name="WC">    100.00000000</i>
     <i type="int" name="INIMIX">     1</i>
     <i type="int" name="MIXPRE">     1</i>
     <i type="int" name="MREMOVE">     5</i>
    </separator>
   </separator>
   <separator name="electronic dipolcorrection" >
    <i type="logical" name="LDIPOL"> F  </i>
    <i type="logical" name="LMONO"> F  </i>
    <i type="int" name="IDIPOL">     0</i>
    <i name="EPSILON">      1.00000000</i>
    <v name="DIPOL">   -100.00000000   -100.00000000   -100.00000000</v>
    <i name="EFIELD">      0.00000000</i>
   </separator>
  </separator>
  <separator name="grids" >
   <i type="int" name="NGX">    28</i>
   <i type="int" name="NGY">    28</i>
   <i type="int" name="NGZ">   126</i>
   <i type="int" name="NGXF">    56</i>
   <i type="int" name="NGYF">    56</i>
   <i type="int" name="NGZF">   252</i>
   <i type="logical" name="ADDGRID"> F  </i>
  </separator>
  <separator name="ionic" >
   <i type="int" name="NSW">     0</i>
   <i type="int" name="IBRION">    -1</i>
   <i type="int" name="MDALGO">     0</i>
   <i type="int" name="ISIF">     0</i>
   <i name="PSTRESS">      0.00000000</i>
   <i name="EDIFFG">     -0.03000000</i>
   <i type="int" name="NFREE">     1</i>
   <i name="POTIM">      0.50000000</i>
   <i name="SMASS">     -3.00000000</i>
   <i name="SCALEE">      1.00000000</i>
  </separator>
  <separator name="ionic md" >
   <i name="TEBEG">      0.00010000</i>
   <i name="TEEND">      0.00010000</i>
   <i type="int" name="NBLOCK">     1</i>
   <i type="int" name="KBLOCK">     1</i>
   <i type="int" name="NPACO">   256</i>
   <i name="APACO">     16.00000000</i>
  </separator>
  <separator name="symmetry" >
   <i type="int" name="ISYM">     0</i>
   <i name="SYMPREC">      0.00001000</i>
  </separator>
  <separator name="dos" >
   <i type="int" name="LORBIT">     0</i>
   <v name="RWIGS">      1.50000000      0.80000000      0.80000000</v>
   <i type="int" name="NEDOS">   301</i>
   <i name="EMIN">     10.00000000</i>
   <i name="EMAX">    -10.00000000</i>
   <i name="EFERMI">      0.00000000</i>
  </separator>
  <separator name="writing" >
   <i type="int" name="NWRITE">     2</i>
   <i type="logical" name="LWAVE"> F  </i>
   <i type="logical" name="LDOWNSAMPLE"> F  </i>
   <i type="logical" name="LCHARG"> F  </i>
   <i type="logical" name="LPARD"> F  </i>
   <i type="logical" name="LVTOT"> F  </i>
   <i type="logical" name="LVHAR"> F  </i>
   <i type="logical" name="LELF"> F  </i>
   <i type="logical" name="LOPTICS"> F  </i>
   <v name="STM">      0.00000000      0.00000000      0.00000000      0.00000000      0.00000000      0.00000000      0.00000000</v>
  </separator>
  <separator name="performance" >
   <i type="int" name="NPAR">     4</i>
   <i type="int" name="NSIM">     4</i>
   <i type="int" name="NBLK">    -1</i>
   <i type="logical" name="LPLANE"> T  </i>
   <i type="logical" name="LSCALAPACK"> T  </i>
   <i type="logical" name="LSCAAWARE"> F  </i>
   <i type="logical" name="LSCALU"> F  </i>
   <i type="logical" name="LASYNC"> F  </i>
   <i type="logical" name="LORBITALREAL"> F  </i>
  </separator>
  <separator name="miscellaneous" >
   <i type="int" name="IDIOT">     3</i>
   <i type="int" name="ISPECIAL">     0</i>
   <i type="logical" name="LMUSIC"> F  </i>
   <v name="POMASS">    195.08000000     12.01100000     16.00000000</v>
   <v name="DARWINR">      0.00000000      0.00000000      0.00000000</v>
   <v name="DARWINV">      1.00000000      1.00000000      1.00000000</v>
   <i type="logical" name="LCORR"> T  </i>
  </separator>
  <i type="logical" name="GGA_COMPAT"> T  </i>
  <i type="logical" name="LBERRY"> F  </i>
  <i type="int" name="ICORELEVEL">     0</i>
  <i type="logical" name="LDAU"> F  </i>
  <i type="int" name="I_CONSTRAINED_M">     0</i>
  <separator name="electronic exchange-correlation" >
   <i type="string" name="GGA">RP</i>
   <i type="int" name="VOSKOWN">     0</i>
   <i type="logical" name="LHFCALC"> F  </i>
   <i type="string" name="PRECFOCK"></i>
   <i type="logical" name="LSYMGRAD"> F  </i>
   <i type="logical" name="LHFONE"> F  </i>
   <i type="logical" name="LRHFCALC"> F  </i>
   <i type="logical" name="LTHOMAS"> F  </i>
   <i type="logical" name="LMODELHF"> F  </i>
   <i name="ENCUT4O">     -1.00000000</i>
   <i type="int" name="EXXOEP">     0</i>
   <i type="int" name="FOURORBIT">     0</i>
   <i name="AEXX">      0.00000000</i>
   <i name="HFALPHA">      0.00000000</i>
   <i name="MCALPHA">      0.00000000</i>
   <i name="ALDAX">      1.00000000</i>
   <i name="AGGAX">      1.00000000</i>
   <i name="ALDAC">      1.00000000</i>
   <i name="AGGAC">      1.00000000</i>
   <i type="int" name="NKREDX">     1</i>
   <i type="int" name="NKREDY">     1</i>
   <i type="int" name="NKREDZ">     1</i>
   <i type="logical" name="SHIFTRED"> F  </i>
   <i type="logical" name="ODDONLY"> F  </i>
   <i type="logical" name="EVENONLY"> F  </i>
   <i type="int" name="LMAXFOCK">     0</i>
   <i type="int" name="NMAXFOCKAE">     0</i>
   <i type="logical" name="LFOCKAEDFT"> F  </i>
   <i name="HFSCREEN">      0.00000000</i>
   <i name="HFSCREENC">      0.00000000</i>
   <i type="int" name="NBANDSGWLOW">     0</i>
  </separator>
  <separator name="vdW DFT" >
   <i type="logical" name="LUSE_VDW"> F  </i>
   <i name="Zab_VDW">     -0.84910000</i>
   <i name="PARAM1">      0.12340000</i>
   <i name="PARAM2">      1.00000000</i>
   <i name="PARAM3">      0.00000000</i>
  </separator>
  <separator name="model GW" >
   <i type="int" name="MODEL_GW">     0</i>
   <i name="MODEL_EPS0">     24.74626931</i>
   <i name="MODEL_ALPHA">      1.00000000</i>
  </separator>
  <separator name="linear response parameters" >
   <i type="logical" name="LEPSILON"> F  </i>
   <i type="logical" name="LRPA"> F  </i>
   <i type="logical" name="LNABLA"> F  </i>
   <i type="logical" name="LVEL"> F  </i>
   <i type="int" name="KINTER">     0</i>
   <i name="CSHIFT">      0.10000000</i>
   <i name="OMEGAMAX">     -1.00000000</i>
   <i name="DEG_THRESHOLD">      0.00200000</i>
   <i name="RTIME">     -0.10000000</i>
   <i name="WPLASMAI">      0.00000000</i>
   <v name="DFIELD">      0.00000000      0.00000000      0.00000000</v>
   <v name="WPLASMA">      0.00000000      0.00000000      0.00000000      0.00000000      0.00000000      0.00000000      0.00000000      0.00000000      0.00000000</v>
  </separator>
  <separator name="orbital magnetization" >
   <i type="logical" name="NUCIND"> F  </i>
   <v name="MAGPOS">      0.00000000      0.00000000      0.00000000</v>
   <i type="logical" name="LNICSALL"> T  </i>
   <i type="logical" name="ORBITALMAG"> F  </i>
   <i type="logical" name="LMAGBLOCH"> F  </i>
   <i type="logical" name="LCHIMAG"> F  </i>
   <i type="logical" name="LGAUGE"> T  </i>
   <i type="int" name="MAGATOM">     0</i>
   <v name="MAGDIPOL">      0.00000000      0.00000000      0.00000000</v>
   <v name="AVECCONST">      0.00000000      0.00000000      0.00000000</v>
  </separator>
  <separator name="response functions" >
   <i type="logical" name="LADDER"> F  </i>
   <i type="logical" name="LRPAFORCE"> F  </i>
   <i type="logical" name="LFXC"> F  </i>
   <i type="logical" name="LHARTREE"> T  </i>
   <i type="int" name="IBSE">     0</i>
   <v type="int" name="KPOINT">    -1     0     0     0</v>
   <i type="logical" name="LTCTE"> F  </i>
   <i type="logical" name="LTETE"> F  </i>
   <i type="logical" name="LTRIPLET"> F  </i>
   <i type="logical" name="LFXCEPS"> F  </i>
   <i type="logical" name="LFXHEG"> F  </i>
   <i type="int" name="NATURALO">     2</i>
   <i type="logical" name="L2ORDER"> F  </i>
   <i type="logical" name="LMP2LT"> F  </i>
   <i type="logical" name="LUSEW"> F  </i>
   <i name="ENCUTGW">     -2.00000000</i>
   <i name="ENCUTGWSOFT">     -2.00000000</i>
   <i name="ENCUTLF">     -1.00000000</i>
   <i type="int" name="LMAXMP2">    -1</i>
   <i name="SCISSOR">      0.00000000</i>
   <i type="int" name="NOMEGA">     0</i>
   <i type="int" name="NOMEGAR">     0</i>
   <i type="int" name="NBANDSGW">    -1</i>
   <i type="int" name="NBANDSO">    -1</i>
   <i type="int" name="NBANDSV">    -1</i>
   <i type="int" name="NELM">     1</i>
   <i type="int" name="NELMHF">     1</i>
   <i type="int" name="DIM">     3</i>
   <i type="int" name="ANTIRES">     0</i>
   <i name="OMEGAMAX">    -30.00000000</i>
   <i name="OMEGAMIN">    -30.00000000</i>
   <i name="OMEGATL">   -200.00000000</i>
   <i type="int" name="OMEGAGRID">   140</i>
   <i name="CSHIFT">     -0.10000000</i>
   <i type="logical" name="SELFENERGY"> F  </i>
   <i type="logical" name="LSPECTRAL"> F  </i>
   <i type="logical" name="LSPECTRALGW"> F  </i>
   <i type="logical" name="LSINGLES"> F  </i>
   <i type="logical" name="LFERMIGW"> F  </i>
   <i type="logical" name="ODDONLYGW"> F  </i>
   <i type="logical" name="EVENONLYGW"> F  </i>
   <i type="int" name="NKREDLFX">     1</i>
   <i type="int" name="NKREDLFY">     1</i>
   <i type="int" name="NKREDLFZ">     1</i>
   <i type="int" name="MAXMEM">  2800</i>
   <i type="int" name="TELESCOPE">     0</i>
   <i type="int" name="TAUPAR">     1</i>
   <i type="int" name="OMEGAPAR">    -1</i>
   <i name="LAMBDA">      1.00000000</i>
  </separator>
  <separator name="External order field" >
   <i name="OFIELD_KAPPA">      0.00000000</i>
   <v name="OFIELD_K">      0.00000000      0.00000000      0.00000000</v>
   <i name="OFIELD_Q6_NEAR">      0.00000000</i>
   <i name="OFIELD_Q6_FAR">      0.00000000</i>
   <i name="OFIELD_A">      0.00000000</i>
  </separator>
 </parameters>
 <atominfo>
  <atoms>      18 </atoms>
  <types>       3 </types>
  <array name="atoms" >
   <dimension dim="1">ion</dimension>
   <field type="string">element</field>
   <field type="int">atomtype</field>
   <set>
    <rc><c>Pt</c><c>   1</c></rc>
    <rc><c>Pt</c><c>   1</c></rc>
    <rc><c>Pt</c><c>   1</c></rc>
    <rc><c>Pt</c><c>   1</c></rc>
    <rc><c>Pt</c><c>   1</c></rc>
    <rc><c>Pt</c><c>   1</c></rc>
    <rc><c>Pt</c><c>   1</c></rc>
    <rc><c>Pt</c><c>   1</c></rc>
    <rc><c>Pt</c><c>   1</c></rc>
    <rc><c>Pt</c><c>   1</c></rc>
    <rc><c>Pt</c><c>   1</c></rc>
    <rc><c>Pt</c><c>   1</c></rc>
    <rc><c>Pt</c><c>   1</c></rc>
    <rc><c>Pt</c><c>   1</c></rc>
    <rc><c>Pt</c><c>   1</c></rc>
    <rc><c>Pt</c><c>   1</c></rc>
    <rc><c>C </c><c>   2</c></rc>
    <rc><c>O </c><c>   3</c></rc>
   </set>
  </array>
  <array name="atomtypes" >
   <dimension dim="1">type</dimension>
   <field type="int">atomspertype</field>
   <field type="string">element</field>
   <field>mass</field>
   <field>valence</field>
   <field type="string">pseudopotential</field>
   <set>
    <rc><c>  16</c><c>Pt</c><c>    195.08000000</c><c>     10.00000000</c><c>  PAW_PBE Pt 04Feb2005                  </c></rc>
    <rc><c>   1</c><c>C </c><c>     12.01100000</c><c>      4.00000000</c><c>  PAW_PBE C 08Apr2002                   </c></rc>
    <rc><c>   1</c><c>O </c><c>     16.00000000</c><c>      6.00000000</c><c>  PAW_PBE O 08Apr2002                   </c></rc>
   </set>
  </array>
 </atominfo>
 <structure name="initialpos" >
  <crystal>
   <varray name="basis" >
    <v>       5.64384424       0.00000000       0.00000000 </v>
    <v>       2.82192212       4.88771248       0.00000000 </v>
    <v>       0.00000000       0.00000000      26.91226928 </v>
   </varray>
   <i name="volume">    742.38807929 </i>
   <varray name="rec_basis" >
    <v>       0.17718420      -0.10229734       0.00000000 </v>
    <v>       0.00000000       0.20459469       0.00000000 </v>
    <v>       0.00000000       0.00000000       0.03715777 </v>
   </varray>
  </crystal>
  <varray name="positions" >
   <v>       0.00000000       0.00000000       0.37157773 </v>
   <v>       0.50000000       0.00000000       0.37157773 </v>
   <v>       0.00000000       0.50000000       0.37157773 </v>
   <v>       0.50000000       0.50000000       0.37157773 </v>
   <v>       0.16666667       0.16666667       0.45719258 </v>
   <v>       0.66666667       0.16666667       0.45719258 </v>
   <v>       0.16666667       0.66666667       0.45719258 </v>
   <v>       0.66666667       0.66666667       0.45719258 </v>
   <v>       0.83387762       0.33306014       0.54220317 </v>
   <v>       0.33169125       0.33345140       0.54216948 </v>
   <v>       0.84176685       0.82911591       0.54482982 </v>
   <v>       0.33169178       0.83485554       0.54216960 </v>
   <v>       0.99733416       0.00214325       0.63434614 </v>
   <v>       0.50796191       0.99601873       0.62676952 </v>
   <v>       0.99733214       0.50052396       0.63434551 </v>
   <v>       0.49023277       0.50488239       0.62677967 </v>
   <v>       0.00437955       0.24781286       0.68847090 </v>
   <v>       0.00328756       0.24836371       0.73259127 </v>
  </varray>
  <varray name="selective"  type="logical" >
   <v type="logical" >  F  F  F </v>
   <v type="logical" >  F  F  F </v>
   <v type="logical" >  F  F  F </v>
   <v type="logical" >  F  F  F </v>
   <v type="logical" >  F  F  F </v>
   <v type="logical" >  F  F  F </v>
   <v type="logical" >  F  F  F </v>
   <v type="logical" >  F  F  F </v>
   <v type="logical" >  T  T  T </v>
   <v type="logical" >  T  T  T </v>
   <v type="logical" >  T  T  T </v>
   <v type="logical" >  T  T  T </v>
   <v type="logical" >  T  T  T </v>
   <v type="logical" >  T  T  T </v>
   <v type="logical" >  T  T  T </v>
   <v type="logical" >  T  T  T </v>
   <v type="logical" >  T  T  T </v>
   <v type="logical" >  T  T  T </v>
  </varray>
  <nose>
   <v>      -3.00000000       0.00000000       0.00010000       0.00010000 </v>
  </nose>
 </structure>
 <calculation>
  <scstep>
   <time name="dav">    6.30    6.30</time>
   <time name="total">    6.39    6.40</time>
   <energy>
    <i name="alphaZ">    358.28533891 </i>
    <i name="ewald">  71856.40544697 </i>
    <i name="hartreedc"> -84613.63391598 </i>
    <i name="XCdc">     88.17915455 </i>
    <i name="pawpsdc">  11602.90403888 </i>
    <i name="pawaedc"> -11137.02028253 </i>
    <i name="eentropy">      0.00650572 </i>
    <i name="bandstr">    625.75125389 </i>
    <i name="atom">  12232.07567246 </i>
    <i name="e_fr_energy">   1012.95321287 </i>
    <i name="e_wo_entrp">   1012.94670714 </i>
    <i name="e_0_energy">   1012.95104429 </i>
   </energy>
  </scstep>
  <scstep>
   <time name="dav">    7.28    7.28</time>
   <time name="total">    7.28    7.29</time>
   <energy>
    <i name="e_fr_energy">    -21.90323127 </i>
    <i name="e_wo_entrp">    -21.89381198 </i>
    <i name="e_0_energy">    -21.90009151 </i>
   </energy>
  </scstep>
  <scstep>
   <time name="dav">    6.84    6.85</time>
   <time name="total">    6.84    6.85</time>
   <energy>
    <i name="e_fr_energy">   -102.77323759 </i>
    <i name="e_wo_entrp">   -102.73039045 </i>
    <i name="e_0_energy">   -102.75895521 </i>
   </energy>
  </scstep>
  <scstep>
   <time name="dav">    7.51    7.51</time>
   <time name="total">    7.51    7.51</time>
   <energy>
    <i name="e_fr_energy">   -105.91804682 </i>
    <i name="e_wo_entrp">   -105.86773055 </i>
    <i name="e_0_energy">   -105.90127473 </i>
   </energy>
  </scstep>
  <scstep>
   <time name="dav">    6.79    6.79</time>
   <time name="total">    7.15    7.15</time>
   <energy>
    <i name="e_fr_energy">   -106.00756335 </i>
    <i name="e_wo_entrp">   -105.95724408 </i>
    <i name="e_0_energy">   -105.99079026 </i>
   </energy>
  </scstep>
  <scstep>
   <time name="dav">    7.79    7.79</time>
   <time name="total">    8.18    8.18</time>
   <energy>
    <i name="e_fr_energy">   -101.44049939 </i>
    <i name="e_wo_entrp">   -101.42487115 </i>
    <i name="e_0_energy">   -101.43528998 </i>
   </energy>
  </scstep>
  <scstep>
   <time name="dav">    7.27    7.28</time>
   <time name="total">    7.63    7.64</time>
   <energy>
    <i name="e_fr_energy">   -120.90856724 </i>
    <i name="e_wo_entrp">   -120.91450600 </i>
    <i name="e_0_energy">   -120.91054683 </i>
   </energy>
  </scstep>
  <scstep>
   <time name="dav">    7.23    7.23</time>
   <time name="total">    7.60    7.61</time>
   <energy>
    <i name="e_fr_energy">   -108.98802330 </i>
    <i name="e_wo_entrp">   -108.95167064 </i>
    <i name="e_0_energy">   -108.97590574 </i>
   </energy>
  </scstep>
  <scstep>
   <time name="dav">    6.90    6.91</time>
   <time name="total">    7.38    7.38</time>
   <energy>
    <i name="e_fr_energy">   -107.23275804 </i>
    <i name="e_wo_entrp">   -107.23740903 </i>
    <i name="e_0_energy">   -107.23430837 </i>
   </energy>
  </scstep>
  <scstep>
   <time name="dav">    6.92    6.92</time>
   <time name="total">    7.33    7.33</time>
   <energy>
    <i name="e_fr_energy">   -104.99981005 </i>
    <i name="e_wo_entrp">   -105.00301960 </i>
    <i name="e_0_energy">   -105.00087990 </i>
   </energy>
  </scstep>
  <scstep>
   <time name="dav">    6.71    6.71</time>
   <time name="total">    7.11    7.12</time>
   <energy>
    <i name="e_fr_energy">    -99.46148590 </i>
    <i name="e_wo_entrp">    -99.44765266 </i>
    <i name="e_0_energy">    -99.45687482 </i>
   </energy>
  </scstep>
  <scstep>
   <time name="dav">    6.21    6.22</time>
   <time name="total">    6.59    6.59</time>
   <energy>
    <i name="e_fr_energy">    -99.22664110 </i>
    <i name="e_wo_entrp">    -99.19700385 </i>
    <i name="e_0_energy">    -99.21676201 </i>
   </energy>
  </scstep>
  <scstep>
   <time name="dav">    6.64    6.64</time>
   <time name="total">    7.03    7.04</time>
   <energy>
    <i name="e_fr_energy">    -98.90709539 </i>
    <i name="e_wo_entrp">    -98.89708826 </i>
    <i name="e_0_energy">    -98.90375968 </i>
   </energy>
  </scstep>
  <scstep>
   <time name="dav">    6.24    6.24</time>
   <time name="total">    6.71    6.71</time>
   <energy>
    <i name="e_fr_energy">    -98.87290844 </i>
    <i name="e_wo_entrp">    -98.85850246 </i>
    <i name="e_0_energy">    -98.86810644 </i>
   </energy>
  </scstep>
  <scstep>
   <time name="dav">    6.16    6.17</time>
   <time name="total">    6.73    6.74</time>
   <energy>
    <i name="e_fr_energy">    -98.85720559 </i>
    <i name="e_wo_entrp">    -98.84573188 </i>
    <i name="e_0_energy">    -98.85338102 </i>
   </energy>
  </scstep>
  <scstep>
   <time name="dav">    6.54    6.55</time>
   <time name="total">    7.03    7.04</time>
   <energy>
    <i name="e_fr_energy">    -98.82128257 </i>
    <i name="e_wo_entrp">    -98.80388072 </i>
    <i name="e_0_energy">    -98.81548195 </i>
   </energy>
  </scstep>
  <scstep>
   <time name="dav">    6.68    6.68</time>
   <time name="total">    7.12    7.13</time>
   <energy>
    <i name="e_fr_energy">    -98.80123808 </i>
    <i name="e_wo_entrp">    -98.78554601 </i>
    <i name="e_0_energy">    -98.79600739 </i>
   </energy>
  </scstep>
  <scstep>
   <time name="dav">    6.42    6.42</time>
   <time name="total">    6.82    6.83</time>
   <energy>
    <i name="e_fr_energy">    -98.79835487 </i>
    <i name="e_wo_entrp">    -98.78101654 </i>
    <i name="e_0_energy">    -98.79257542 </i>
   </energy>
  </scstep>
  <scstep>
   <time name="dav">    6.75    6.75</time>
   <time name="total">    7.20    7.21</time>
   <energy>
    <i name="e_fr_energy">    -98.79641181 </i>
    <i name="e_wo_entrp">    -98.77946633 </i>
    <i name="e_0_energy">    -98.79076331 </i>
   </energy>
  </scstep>
  <scstep>
   <time name="dav">    6.43    6.43</time>
   <time name="total">    6.90    6.91</time>
   <energy>
    <i name="e_fr_energy">    -98.79528441 </i>
    <i name="e_wo_entrp">    -98.77847283 </i>
    <i name="e_0_energy">    -98.78968055 </i>
   </energy>
  </scstep>
  <scstep>
   <time name="dav">    6.44    6.44</time>
   <time name="total">    6.88    6.88</time>
   <energy>
    <i name="e_fr_energy">    -98.79454017 </i>
    <i name="e_wo_entrp">    -98.77776324 </i>
    <i name="e_0_energy">    -98.78894786 </i>
   </energy>
  </scstep>
  <scstep>
   <time name="dav">    5.31    5.31</time>
   <time name="total">    5.76    5.77</time>
   <energy>
    <i name="e_fr_energy">    -98.79420103 </i>
    <i name="e_wo_entrp">    -98.77698174 </i>
    <i name="e_0_energy">    -98.78846126 </i>
   </energy>
  </scstep>
  <scstep>
   <time name="dav">    4.40    4.41</time>
   <time name="total">    4.48    4.49</time>
   <energy>
    <i name="alphaZ">    358.28533891 </i>
    <i name="ewald">  71856.40544697 </i>
    <i name="hartreedc"> -84449.02081065 </i>
    <i name="XCdc">     84.46704642 </i>
    <i name="pawpsdc">  14978.14304124 </i>
    <i name="pawaedc"> -14553.10731773 </i>
    <i name="eentropy">     -0.01718085 </i>
    <i name="bandstr">   -606.02539115 </i>
    <i name="atom">  12232.07567246 </i>
    <i name="e_fr_energy">    -98.79415437 </i>
    <i name="e_wo_entrp">    -98.77697352 </i>
    <i name="e_0_energy">    -98.78842742 </i>
   </energy>
  </scstep>
  <structure>
   <crystal>
    <varray name="basis" >
     <v>       5.64384424       0.00000000       0.00000000 </v>
     <v>       2.82192212       4.88771248       0.00000000 </v>
     <v>       0.00000000       0.00000000      26.91226928 </v>
    </varray>
    <i name="volume">    742.38807929 </i>
    <varray name="rec_basis" >
     <v>       0.17718420      -0.10229734       0.00000000 </v>
     <v>       0.00000000       0.20459469       0.00000000 </v>
     <v>       0.00000000       0.00000000       0.03715777 </v>
    </varray>
   </crystal>
   <varray name="positions" >
    <v>       0.00000000       0.00000000       0.37157773 </v>
    <v>       0.50000000       0.00000000       0.37157773 </v>
    <v>       0.00000000       0.50000000       0.37157773 </v>
    <v>       0.50000000       0.50000000       0.37157773 </v>
    <v>       0.16666667       0.16666667       0.45719258 </v>
    <v>       0.66666667       0.16666667       0.45719258 </v>
    <v>       0.16666667       0.66666667       0.45719258 </v>
    <v>       0.66666667       0.66666667       0.45719258 </v>
    <v>       0.83387762       0.33306014       0.54220317 </v>
    <v>       0.33169125       0.33345140       0.54216948 </v>
    <v>       0.84176685       0.82911591       0.54482982 </v>
    <v>       0.33169178       0.83485554       0.54216960 </v>
    <v>       0.99733416       0.00214325       0.63434614 </v>
    <v>       0.50796191       0.99601873       0.62676952 </v>
    <v>       0.99733214       0.50052396       0.63434551 </v>
    <v>       0.49023277       0.50488239       0.62677967 </v>
    <v>       0.00437955       0.24781286       0.68847090 </v>
    <v>       0.00328756       0.24836371       0.73259127 </v>
   </varray>
  </structure>
  <varray name="forces" >
   <v>       0.04619011      -0.02198676      -0.13213011 </v>
   <v>      -0.02503059       0.01445065      -0.07744399 </v>
   <v>       0.04212300      -0.02901985      -0.13214844 </v>
   <v>      -0.07344279       0.04238671      -0.25714725 </v>
   <v>       0.01194242      -0.00691105       0.17683833 </v>
   <v>       0.01363151      -0.05194756       0.06506784 </v>
   <v>      -0.07422327       0.04283730       0.33093288 </v>
   <v>       0.05179112       0.01415385       0.06509568 </v>
   <v>      -0.01079513       0.00622806       0.00411288 </v>
   <v>      -0.01405601      -0.01029758      -0.00018137 </v>
   <v>       0.00771232      -0.00445419      -0.01675238 </v>
   <v>       0.00187928       0.01730718      -0.00018339 </v>
   <v>      -0.00722596      -0.01126947      -0.00802029 </v>
   <v>       0.00598141      -0.00345481      -0.00845275 </v>
   <v>       0.00618051       0.01189422      -0.00807762 </v>
   <v>       0.00321811      -0.00186156      -0.02033762 </v>
   <v>      -0.00091711       0.00053466       0.01189091 </v>
   <v>       0.01504107      -0.00858980       0.00693669 </v>
  </varray>
  <energy>
   <i name="e_fr_energy">    -98.79415437 </i>
   <i name="e_wo_entrp">    -98.78842742 </i>
   <i name="e_0_energy">     -0.01718085 </i>
  </energy>
  <time name="totalsc">  161.11  161.28</time>
  <eigenvalues>
   <array>
    <dimension dim="1">band</dimension>
    <dimension dim="2">kpoint</dimension>
    <dimension dim="3">spin</dimension>
    <field>eigene</field>
    <field>occ</field>
    <set>
     <set comment="spin 1">
      <set comment="kpoint 1">
       <r>  -22.6977    1.0000 </r>
       <r>  -10.5782    1.0000 </r>
       <r>   -9.0660    1.0000 </r>
       <r>   -7.7875    1.0000 </r>
       <r>   -7.0585    1.0000 </r>
       <r>   -6.7295    1.0000 </r>
       <r>   -6.6195    1.0000 </r>
       <r>   -6.5968    1.0000 </r>
       <r>   -6.4940    1.0000 </r>
       <r>   -6.4087    1.0000 </r>
       <r>   -6.3012    1.0000 </r>
       <r>   -6.2746    1.0000 </r>
       <r>   -6.2577    1.0000 </r>
       <r>   -6.2446    1.0000 </r>
       <r>   -6.1459    1.0000 </r>
       <r>   -5.8115    1.0000 </r>
       <r>   -5.7860    1.0000 </r>
       <r>   -5.7293    1.0000 </r>
       <r>   -5.6366    1.0000 </r>
       <r>   -5.6136    1.0000 </r>
       <r>   -5.5905    1.0000 </r>
       <r>   -5.5406    1.0000 </r>
       <r>   -5.2556    1.0000 </r>
       <r>   -5.1862    1.0000 </r>
       <r>   -4.7325    1.0000 </r>
       <r>   -4.7103    1.0000 </r>
       <r>   -4.5096    1.0000 </r>
       <r>   -3.8725    1.0000 </r>
       <r>   -3.8229    1.0000 </r>
       <r>   -3.7242    1.0000 </r>
       <r>   -3.6911    1.0000 </r>
       <r>   -3.6710    1.0000 </r>
       <r>   -3.6490    1.0000 </r>
       <r>   -3.5806    1.0000 </r>
       <r>   -3.4607    1.0000 </r>
       <r>   -3.4604    1.0000 </r>
       <r>   -3.4144    1.0000 </r>
       <r>   -3.3724    1.0000 </r>
       <r>   -3.3386    1.0000 </r>
       <r>   -3.2093    1.0000 </r>
       <r>   -3.1804    1.0000 </r>
       <r>   -3.1691    1.0000 </r>
       <r>   -3.0798    1.0000 </r>
       <r>   -3.0532    1.0000 </r>
       <r>   -2.9739    1.0000 </r>
       <r>   -2.9675    1.0000 </r>
       <r>   -2.6685    1.0000 </r>
       <r>   -2.6497    1.0000 </r>
       <r>   -2.6374    1.0000 </r>
       <r>   -2.4783    1.0000 </r>
       <r>   -2.3606    1.0000 </r>
       <r>   -2.2345    1.0000 </r>
       <r>   -2.1920    1.0000 </r>
       <r>   -2.1121    1.0000 </r>
       <r>   -2.0775    1.0000 </r>
       <r>   -1.7931    1.0000 </r>
       <r>   -1.7253    1.0000 </r>
       <r>   -1.5611    1.0000 </r>
       <r>   -1.4967    1.0000 </r>
       <r>   -1.3432    1.0000 </r>
       <r>   -1.2228    1.0000 </r>
       <r>   -1.1737    1.0000 </r>
       <r>   -1.0897    1.0000 </r>
       <r>   -0.9642    1.0000 </r>
       <r>   -0.9642    1.0000 </r>
       <r>   -0.7738    1.0000 </r>
       <r>   -0.7680    1.0000 </r>
       <r>   -0.7639    1.0000 </r>
       <r>   -0.4673    1.0137 </r>
       <r>   -0.4054    1.0273 </r>
       <r>   -0.3589    1.0351 </r>
       <r>   -0.3114    1.0287 </r>
       <r>   -0.2930    1.0187 </r>
       <r>   -0.2669    0.9940 </r>
       <r>   -0.1926    0.8383 </r>
       <r>   -0.1681    0.7576 </r>
       <r>   -0.0213    0.1821 </r>
       <r>   -0.0135    0.1582 </r>
       <r>   -0.0095    0.1464 </r>
       <r>    0.0499    0.0187 </r>
       <r>    0.0810   -0.0152 </r>
       <r>    0.1054   -0.0292 </r>
       <r>    0.1613   -0.0341 </r>
       <r>    0.1673   -0.0333 </r>
       <r>    0.2109   -0.0243 </r>
       <r>    0.2401   -0.0177 </r>
       <r>    0.3540   -0.0028 </r>
       <r>    0.3575   -0.0026 </r>
       <r>    0.3603   -0.0025 </r>
       <r>    0.6056   -0.0000 </r>
       <r>    0.7912   -0.0000 </r>
       <r>    0.8332   -0.0000 </r>
       <r>    1.5781   -0.0000 </r>
       <r>    1.8991   -0.0000 </r>
       <r>    2.2396   -0.0000 </r>
       <r>    2.4263   -0.0000 </r>
       <r>    2.5222   -0.0000 </r>
       <r>    2.5301   -0.0000 </r>
       <r>    2.7429   -0.0000 </r>
       <r>    2.7694   -0.0000 </r>
       <r>    2.8167   -0.0000 </r>
       <r>    2.9840   -0.0000 </r>
       <r>    4.2535   -0.0000 </r>
       <r>    4.3505   -0.0000 </r>
      </set>
      <set comment="kpoint 2">
       <r>  -22.6974    1.0000 </r>
       <r>  -10.5259    1.0000 </r>
       <r>   -8.7519    1.0000 </r>
       <r>   -7.5067    1.0000 </r>
       <r>   -6.9559    1.0000 </r>
       <r>   -6.5355    1.0000 </r>
       <r>   -6.4933    1.0000 </r>
       <r>   -6.4330    1.0000 </r>
       <r>   -6.3960    1.0000 </r>
       <r>   -6.2768    1.0000 </r>
       <r>   -6.1410    1.0000 </r>
       <r>   -6.1275    1.0000 </r>
       <r>   -6.0806    1.0000 </r>
       <r>   -6.0161    1.0000 </r>
       <r>   -5.9408    1.0000 </r>
       <r>   -5.6756    1.0000 </r>
       <r>   -5.6143    1.0000 </r>
       <r>   -5.5797    1.0000 </r>
       <r>   -5.5080    1.0000 </r>
       <r>   -5.3826    1.0000 </r>
       <r>   -5.3555    1.0000 </r>
       <r>   -5.2665    1.0000 </r>
       <r>   -5.1209    1.0000 </r>
       <r>   -5.0909    1.0000 </r>
       <r>   -4.6533    1.0000 </r>
       <r>   -4.6391    1.0000 </r>
       <r>   -4.4766    1.0000 </r>
       <r>   -3.9609    1.0000 </r>
       <r>   -3.9569    1.0000 </r>
       <r>   -3.8422    1.0000 </r>
       <r>   -3.7425    1.0000 </r>
       <r>   -3.6913    1.0000 </r>
       <r>   -3.6361    1.0000 </r>
       <r>   -3.5619    1.0000 </r>
       <r>   -3.5368    1.0000 </r>
       <r>   -3.5088    1.0000 </r>
       <r>   -3.2956    1.0000 </r>
       <r>   -3.2426    1.0000 </r>
       <r>   -3.2325    1.0000 </r>
       <r>   -3.2181    1.0000 </r>
       <r>   -3.1672    1.0000 </r>
       <r>   -3.1355    1.0000 </r>
       <r>   -3.0842    1.0000 </r>
       <r>   -3.0345    1.0000 </r>
       <r>   -2.9462    1.0000 </r>
       <r>   -2.9412    1.0000 </r>
       <r>   -2.8927    1.0000 </r>
       <r>   -2.8466    1.0000 </r>
       <r>   -2.8016    1.0000 </r>
       <r>   -2.7507    1.0000 </r>
       <r>   -2.6050    1.0000 </r>
       <r>   -2.5543    1.0000 </r>
       <r>   -2.3482    1.0000 </r>
       <r>   -2.3201    1.0000 </r>
       <r>   -2.0477    1.0000 </r>
       <r>   -1.9753    1.0000 </r>
       <r>   -1.8473    1.0000 </r>
       <r>   -1.8128    1.0000 </r>
       <r>   -1.5868    1.0000 </r>
       <r>   -1.5485    1.0000 </r>
       <r>   -1.4920    1.0000 </r>
       <r>   -1.4216    1.0000 </r>
       <r>   -1.3285    1.0000 </r>
       <r>   -1.3268    1.0000 </r>
       <r>   -1.2484    1.0000 </r>
       <r>   -1.1738    1.0000 </r>
       <r>   -1.1702    1.0000 </r>
       <r>   -1.1290    1.0000 </r>
       <r>   -0.9868    1.0000 </r>
       <r>   -0.8144    1.0000 </r>
       <r>   -0.7951    1.0000 </r>
       <r>   -0.6671    1.0002 </r>
       <r>   -0.6064    1.0011 </r>
       <r>   -0.5282    1.0053 </r>
       <r>   -0.5216    1.0059 </r>
       <r>   -0.4625    1.0147 </r>
       <r>   -0.4461    1.0180 </r>
       <r>   -0.3900    1.0306 </r>
       <r>   -0.3783    1.0327 </r>
       <r>   -0.3520    1.0354 </r>
       <r>   -0.2142    0.8975 </r>
       <r>   -0.1720    0.7711 </r>
       <r>   -0.1156    0.5502 </r>
       <r>   -0.0896    0.4406 </r>
       <r>   -0.0841    0.4177 </r>
       <r>    0.0431    0.0288 </r>
       <r>    0.0616    0.0036 </r>
       <r>    0.1031   -0.0283 </r>
       <r>    0.1487   -0.0353 </r>
       <r>    0.2004   -0.0267 </r>
       <r>    0.9848   -0.0000 </r>
       <r>    1.3403   -0.0000 </r>
       <r>    1.4222   -0.0000 </r>
       <r>    1.6461   -0.0000 </r>
       <r>    1.9251   -0.0000 </r>
       <r>    2.0066   -0.0000 </r>
       <r>    2.4200   -0.0000 </r>
       <r>    2.5362   -0.0000 </r>
       <r>    3.4663   -0.0000 </r>
       <r>    3.5250   -0.0000 </r>
       <r>    3.7521   -0.0000 </r>
       <r>    4.1921   -0.0000 </r>
       <r>    4.5341   -0.0000 </r>
       <r>    5.2401   -0.0000 </r>
      </set>
      <set comment="kpoint 3">
       <r>  -22.6968    1.0000 </r>
       <r>  -10.4471    1.0000 </r>
       <r>   -7.8953    1.0000 </r>
       <r>   -7.0117    1.0000 </r>
       <r>   -6.8907    1.0000 </r>
       <r>   -6.6033    1.0000 </r>
       <r>   -6.4875    1.0000 </r>
       <r>   -6.2154    1.0000 </r>
       <r>   -6.1042    1.0000 </r>
       <r>   -5.7592    1.0000 </r>
       <r>   -5.6901    1.0000 </r>
       <r>   -5.6749    1.0000 </r>
       <r>   -5.6079    1.0000 </r>
       <r>   -5.5444    1.0000 </r>
       <r>   -5.5003    1.0000 </r>
       <r>   -5.3472    1.0000 </r>
       <r>   -5.1678    1.0000 </r>
       <r>   -5.1372    1.0000 </r>
       <r>   -5.1182    1.0000 </r>
       <r>   -4.9952    1.0000 </r>
       <r>   -4.9018    1.0000 </r>
       <r>   -4.8651    1.0000 </r>
       <r>   -4.6308    1.0000 </r>
       <r>   -4.5763    1.0000 </r>
       <r>   -4.4955    1.0000 </r>
       <r>   -4.3866    1.0000 </r>
       <r>   -4.3841    1.0000 </r>
       <r>   -4.3551    1.0000 </r>
       <r>   -4.1712    1.0000 </r>
       <r>   -4.1100    1.0000 </r>
       <r>   -4.0545    1.0000 </r>
       <r>   -3.9676    1.0000 </r>
       <r>   -3.7729    1.0000 </r>
       <r>   -3.7356    1.0000 </r>
       <r>   -3.7335    1.0000 </r>
       <r>   -3.6880    1.0000 </r>
       <r>   -3.5813    1.0000 </r>
       <r>   -3.5090    1.0000 </r>
       <r>   -3.4739    1.0000 </r>
       <r>   -3.3840    1.0000 </r>
       <r>   -3.2949    1.0000 </r>
       <r>   -3.2032    1.0000 </r>
       <r>   -3.1591    1.0000 </r>
       <r>   -3.1178    1.0000 </r>
       <r>   -2.9852    1.0000 </r>
       <r>   -2.9649    1.0000 </r>
       <r>   -2.9037    1.0000 </r>
       <r>   -2.8832    1.0000 </r>
       <r>   -2.8236    1.0000 </r>
       <r>   -2.7689    1.0000 </r>
       <r>   -2.6840    1.0000 </r>
       <r>   -2.6115    1.0000 </r>
       <r>   -2.5846    1.0000 </r>
       <r>   -2.5735    1.0000 </r>
       <r>   -2.5061    1.0000 </r>
       <r>   -2.4589    1.0000 </r>
       <r>   -2.3902    1.0000 </r>
       <r>   -2.3148    1.0000 </r>
       <r>   -2.2197    1.0000 </r>
       <r>   -2.1724    1.0000 </r>
       <r>   -2.1036    1.0000 </r>
       <r>   -2.0997    1.0000 </r>
       <r>   -2.0641    1.0000 </r>
       <r>   -1.8879    1.0000 </r>
       <r>   -1.7575    1.0000 </r>
       <r>   -1.7122    1.0000 </r>
       <r>   -1.6197    1.0000 </r>
       <r>   -1.5421    1.0000 </r>
       <r>   -1.4893    1.0000 </r>
       <r>   -1.4656    1.0000 </r>
       <r>   -1.3698    1.0000 </r>
       <r>   -1.3415    1.0000 </r>
       <r>   -1.2774    1.0000 </r>
       <r>   -1.1910    1.0000 </r>
       <r>   -1.1701    1.0000 </r>
       <r>   -1.1365    1.0000 </r>
       <r>   -1.0825    1.0000 </r>
       <r>   -0.9523    1.0000 </r>
       <r>   -0.8109    1.0000 </r>
       <r>   -0.6198    1.0008 </r>
       <r>   -0.5702    1.0024 </r>
       <r>   -0.5075    1.0075 </r>
       <r>   -0.3265    1.0333 </r>
       <r>   -0.1781    0.7920 </r>
       <r>   -0.1505    0.6923 </r>
       <r>   -0.1183    0.5615 </r>
       <r>   -0.0315    0.2155 </r>
       <r>    0.1321   -0.0351 </r>
       <r>    0.1720   -0.0325 </r>
       <r>    0.2874   -0.0092 </r>
       <r>    0.9113   -0.0000 </r>
       <r>    1.6223   -0.0000 </r>
       <r>    1.7548   -0.0000 </r>
       <r>    1.9387   -0.0000 </r>
       <r>    1.9393   -0.0000 </r>
       <r>    2.4659   -0.0000 </r>
       <r>    2.7245   -0.0000 </r>
       <r>    2.9663   -0.0000 </r>
       <r>    3.3920   -0.0000 </r>
       <r>    3.8346   -0.0000 </r>
       <r>    4.1943   -0.0000 </r>
       <r>    4.7148   -0.0000 </r>
       <r>    5.1261   -0.0000 </r>
       <r>    5.9131    0.0000 </r>
      </set>
      <set comment="kpoint 4">
       <r>  -22.6974    1.0000 </r>
       <r>  -10.4783    1.0000 </r>
       <r>   -8.7562    1.0000 </r>
       <r>   -7.5188    1.0000 </r>
       <r>   -6.9212    1.0000 </r>
       <r>   -6.6314    1.0000 </r>
       <r>   -6.4894    1.0000 </r>
       <r>   -6.4162    1.0000 </r>
       <r>   -6.3624    1.0000 </r>
       <r>   -6.2443    1.0000 </r>
       <r>   -6.1724    1.0000 </r>
       <r>   -6.1291    1.0000 </r>
       <r>   -6.0764    1.0000 </r>
       <r>   -6.0051    1.0000 </r>
       <r>   -5.9288    1.0000 </r>
       <r>   -5.6613    1.0000 </r>
       <r>   -5.6283    1.0000 </r>
       <r>   -5.6149    1.0000 </r>
       <r>   -5.5213    1.0000 </r>
       <r>   -5.3976    1.0000 </r>
       <r>   -5.3444    1.0000 </r>
       <r>   -5.3194    1.0000 </r>
       <r>   -5.1429    1.0000 </r>
       <r>   -5.0352    1.0000 </r>
       <r>   -4.6572    1.0000 </r>
       <r>   -4.6214    1.0000 </r>
       <r>   -4.4982    1.0000 </r>
       <r>   -3.9818    1.0000 </r>
       <r>   -3.9166    1.0000 </r>
       <r>   -3.8775    1.0000 </r>
       <r>   -3.7879    1.0000 </r>
       <r>   -3.7234    1.0000 </r>
       <r>   -3.6477    1.0000 </r>
       <r>   -3.5844    1.0000 </r>
       <r>   -3.5554    1.0000 </r>
       <r>   -3.4272    1.0000 </r>
       <r>   -3.3138    1.0000 </r>
       <r>   -3.2932    1.0000 </r>
       <r>   -3.2213    1.0000 </r>
       <r>   -3.2069    1.0000 </r>
       <r>   -3.1742    1.0000 </r>
       <r>   -3.1282    1.0000 </r>
       <r>   -3.1068    1.0000 </r>
       <r>   -3.0580    1.0000 </r>
       <r>   -2.9644    1.0000 </r>
       <r>   -2.9206    1.0000 </r>
       <r>   -2.8892    1.0000 </r>
       <r>   -2.8415    1.0000 </r>
       <r>   -2.7893    1.0000 </r>
       <r>   -2.7395    1.0000 </r>
       <r>   -2.6668    1.0000 </r>
       <r>   -2.5613    1.0000 </r>
       <r>   -2.3138    1.0000 </r>
       <r>   -2.2040    1.0000 </r>
       <r>   -2.1075    1.0000 </r>
       <r>   -1.9966    1.0000 </r>
       <r>   -1.8097    1.0000 </r>
       <r>   -1.7629    1.0000 </r>
       <r>   -1.6214    1.0000 </r>
       <r>   -1.5306    1.0000 </r>
       <r>   -1.4619    1.0000 </r>
       <r>   -1.3798    1.0000 </r>
       <r>   -1.3214    1.0000 </r>
       <r>   -1.2911    1.0000 </r>
       <r>   -1.2474    1.0000 </r>
       <r>   -1.2196    1.0000 </r>
       <r>   -1.1585    1.0000 </r>
       <r>   -1.1128    1.0000 </r>
       <r>   -1.0140    1.0000 </r>
       <r>   -0.8261    1.0000 </r>
       <r>   -0.7833    1.0000 </r>
       <r>   -0.6859    1.0002 </r>
       <r>   -0.5874    1.0017 </r>
       <r>   -0.5375    1.0045 </r>
       <r>   -0.4899    1.0099 </r>
       <r>   -0.4751    1.0123 </r>
       <r>   -0.4417    1.0190 </r>
       <r>   -0.4134    1.0254 </r>
       <r>   -0.3621    1.0348 </r>
       <r>   -0.3502    1.0354 </r>
       <r>   -0.2311    0.9360 </r>
       <r>   -0.1743    0.7791 </r>
       <r>   -0.1486    0.6849 </r>
       <r>   -0.1066    0.5126 </r>
       <r>   -0.0894    0.4397 </r>
       <r>    0.0209    0.0701 </r>
       <r>    0.0628    0.0021 </r>
       <r>    0.0884   -0.0205 </r>
       <r>    0.1500   -0.0352 </r>
       <r>    0.2543   -0.0148 </r>
       <r>    0.9455   -0.0000 </r>
       <r>    1.3773   -0.0000 </r>
       <r>    1.4226   -0.0000 </r>
       <r>    1.6167   -0.0000 </r>
       <r>    1.9178   -0.0000 </r>
       <r>    2.0135   -0.0000 </r>
       <r>    2.5188   -0.0000 </r>
       <r>    2.5804   -0.0000 </r>
       <r>    3.0996   -0.0000 </r>
       <r>    3.7845   -0.0000 </r>
       <r>    3.8697   -0.0000 </r>
       <r>    4.3027   -0.0000 </r>
       <r>    4.6337   -0.0000 </r>
       <r>    5.0866   -0.0000 </r>
      </set>
      <set comment="kpoint 5">
       <r>  -22.6974    1.0000 </r>
       <r>  -10.4783    1.0000 </r>
       <r>   -8.7562    1.0000 </r>
       <r>   -7.5188    1.0000 </r>
       <r>   -6.9212    1.0000 </r>
       <r>   -6.6315    1.0000 </r>
       <r>   -6.4893    1.0000 </r>
       <r>   -6.4162    1.0000 </r>
       <r>   -6.3624    1.0000 </r>
       <r>   -6.2443    1.0000 </r>
       <r>   -6.1724    1.0000 </r>
       <r>   -6.1291    1.0000 </r>
       <r>   -6.0764    1.0000 </r>
       <r>   -6.0051    1.0000 </r>
       <r>   -5.9288    1.0000 </r>
       <r>   -5.6613    1.0000 </r>
       <r>   -5.6283    1.0000 </r>
       <r>   -5.6149    1.0000 </r>
       <r>   -5.5213    1.0000 </r>
       <r>   -5.3977    1.0000 </r>
       <r>   -5.3445    1.0000 </r>
       <r>   -5.3194    1.0000 </r>
       <r>   -5.1429    1.0000 </r>
       <r>   -5.0352    1.0000 </r>
       <r>   -4.6572    1.0000 </r>
       <r>   -4.6214    1.0000 </r>
       <r>   -4.4982    1.0000 </r>
       <r>   -3.9818    1.0000 </r>
       <r>   -3.9166    1.0000 </r>
       <r>   -3.8775    1.0000 </r>
       <r>   -3.7879    1.0000 </r>
       <r>   -3.7234    1.0000 </r>
       <r>   -3.6477    1.0000 </r>
       <r>   -3.5844    1.0000 </r>
       <r>   -3.5554    1.0000 </r>
       <r>   -3.4272    1.0000 </r>
       <r>   -3.3138    1.0000 </r>
       <r>   -3.2931    1.0000 </r>
       <r>   -3.2213    1.0000 </r>
       <r>   -3.2069    1.0000 </r>
       <r>   -3.1742    1.0000 </r>
       <r>   -3.1282    1.0000 </r>
       <r>   -3.1068    1.0000 </r>
       <r>   -3.0580    1.0000 </r>
       <r>   -2.9644    1.0000 </r>
       <r>   -2.9206    1.0000 </r>
       <r>   -2.8892    1.0000 </r>
       <r>   -2.8415    1.0000 </r>
       <r>   -2.7893    1.0000 </r>
       <r>   -2.7395    1.0000 </r>
       <r>   -2.6668    1.0000 </r>
       <r>   -2.5613    1.0000 </r>
       <r>   -2.3138    1.0000 </r>
       <r>   -2.2040    1.0000 </r>
       <r>   -2.1075    1.0000 </r>
       <r>   -1.9966    1.0000 </r>
       <r>   -1.8097    1.0000 </r>
       <r>   -1.7629    1.0000 </r>
       <r>   -1.6214    1.0000 </r>
       <r>   -1.5306    1.0000 </r>
       <r>   -1.4619    1.0000 </r>
       <r>   -1.3798    1.0000 </r>
       <r>   -1.3214    1.0000 </r>
       <r>   -1.2911    1.0000 </r>
       <r>   -1.2474    1.0000 </r>
       <r>   -1.2196    1.0000 </r>
       <r>   -1.1585    1.0000 </r>
       <r>   -1.1128    1.0000 </r>
       <r>   -1.0140    1.0000 </r>
       <r>   -0.8261    1.0000 </r>
       <r>   -0.7833    1.0000 </r>
       <r>   -0.6859    1.0002 </r>
       <r>   -0.5874    1.0017 </r>
       <r>   -0.5375    1.0045 </r>
       <r>   -0.4899    1.0099 </r>
       <r>   -0.4751    1.0123 </r>
       <r>   -0.4417    1.0190 </r>
       <r>   -0.4134    1.0254 </r>
       <r>   -0.3621    1.0348 </r>
       <r>   -0.3502    1.0354 </r>
       <r>   -0.2311    0.9360 </r>
       <r>   -0.1743    0.7791 </r>
       <r>   -0.1486    0.6850 </r>
       <r>   -0.1066    0.5126 </r>
       <r>   -0.0894    0.4397 </r>
       <r>    0.0209    0.0701 </r>
       <r>    0.0628    0.0021 </r>
       <r>    0.0884   -0.0205 </r>
       <r>    0.1500   -0.0352 </r>
       <r>    0.2543   -0.0148 </r>
       <r>    0.9454   -0.0000 </r>
       <r>    1.3774   -0.0000 </r>
       <r>    1.4226   -0.0000 </r>
       <r>    1.6167   -0.0000 </r>
       <r>    1.9178   -0.0000 </r>
       <r>    2.0135   -0.0000 </r>
       <r>    2.5188   -0.0000 </r>
       <r>    2.5805   -0.0000 </r>
       <r>    3.0997   -0.0000 </r>
       <r>    3.7846   -0.0000 </r>
       <r>    3.8696   -0.0000 </r>
       <r>    4.3027   -0.0000 </r>
       <r>    4.6336   -0.0000 </r>
       <r>    5.0866   -0.0000 </r>
      </set>
      <set comment="kpoint 6">
       <r>  -22.6966    1.0000 </r>
       <r>  -10.4125    1.0000 </r>
       <r>   -8.1623    1.0000 </r>
       <r>   -7.0889    1.0000 </r>
       <r>   -6.7376    1.0000 </r>
       <r>   -6.5952    1.0000 </r>
       <r>   -6.3411    1.0000 </r>
       <r>   -6.2942    1.0000 </r>
       <r>   -6.2210    1.0000 </r>
       <r>   -5.9190    1.0000 </r>
       <r>   -5.8615    1.0000 </r>
       <r>   -5.8514    1.0000 </r>
       <r>   -5.7077    1.0000 </r>
       <r>   -5.6175    1.0000 </r>
       <r>   -5.5804    1.0000 </r>
       <r>   -5.4310    1.0000 </r>
       <r>   -5.3538    1.0000 </r>
       <r>   -5.2714    1.0000 </r>
       <r>   -5.2104    1.0000 </r>
       <r>   -5.1746    1.0000 </r>
       <r>   -4.9963    1.0000 </r>
       <r>   -4.9065    1.0000 </r>
       <r>   -4.8014    1.0000 </r>
       <r>   -4.7129    1.0000 </r>
       <r>   -4.5198    1.0000 </r>
       <r>   -4.4729    1.0000 </r>
       <r>   -4.4099    1.0000 </r>
       <r>   -4.2814    1.0000 </r>
       <r>   -4.1888    1.0000 </r>
       <r>   -4.0734    1.0000 </r>
       <r>   -3.9705    1.0000 </r>
       <r>   -3.8972    1.0000 </r>
       <r>   -3.8153    1.0000 </r>
       <r>   -3.6649    1.0000 </r>
       <r>   -3.6278    1.0000 </r>
       <r>   -3.5462    1.0000 </r>
       <r>   -3.5052    1.0000 </r>
       <r>   -3.4414    1.0000 </r>
       <r>   -3.3270    1.0000 </r>
       <r>   -3.3180    1.0000 </r>
       <r>   -3.2885    1.0000 </r>
       <r>   -3.2271    1.0000 </r>
       <r>   -3.1892    1.0000 </r>
       <r>   -3.1526    1.0000 </r>
       <r>   -3.0735    1.0000 </r>
       <r>   -3.0476    1.0000 </r>
       <r>   -2.9297    1.0000 </r>
       <r>   -2.8551    1.0000 </r>
       <r>   -2.7972    1.0000 </r>
       <r>   -2.7415    1.0000 </r>
       <r>   -2.7003    1.0000 </r>
       <r>   -2.6175    1.0000 </r>
       <r>   -2.4416    1.0000 </r>
       <r>   -2.4030    1.0000 </r>
       <r>   -2.3483    1.0000 </r>
       <r>   -2.3170    1.0000 </r>
       <r>   -2.2826    1.0000 </r>
       <r>   -2.1868    1.0000 </r>
       <r>   -2.1617    1.0000 </r>
       <r>   -2.0824    1.0000 </r>
       <r>   -2.0292    1.0000 </r>
       <r>   -2.0180    1.0000 </r>
       <r>   -1.9739    1.0000 </r>
       <r>   -1.8973    1.0000 </r>
       <r>   -1.7052    1.0000 </r>
       <r>   -1.5646    1.0000 </r>
       <r>   -1.5031    1.0000 </r>
       <r>   -1.4233    1.0000 </r>
       <r>   -1.3799    1.0000 </r>
       <r>   -1.3064    1.0000 </r>
       <r>   -1.1732    1.0000 </r>
       <r>   -1.1307    1.0000 </r>
       <r>   -1.0758    1.0000 </r>
       <r>   -1.0255    1.0000 </r>
       <r>   -0.9815    1.0000 </r>
       <r>   -0.8121    1.0000 </r>
       <r>   -0.6212    1.0008 </r>
       <r>   -0.5210    1.0060 </r>
       <r>   -0.4720    1.0129 </r>
       <r>   -0.4421    1.0189 </r>
       <r>   -0.3880    1.0310 </r>
       <r>   -0.3584    1.0351 </r>
       <r>   -0.3267    1.0333 </r>
       <r>   -0.2612    0.9869 </r>
       <r>   -0.1116    0.5333 </r>
       <r>   -0.1054    0.5072 </r>
       <r>   -0.0287    0.2061 </r>
       <r>    0.0291    0.0535 </r>
       <r>    0.0844   -0.0177 </r>
       <r>    0.2108   -0.0243 </r>
       <r>    0.2540   -0.0149 </r>
       <r>    0.7474   -0.0000 </r>
       <r>    1.0740   -0.0000 </r>
       <r>    1.2823   -0.0000 </r>
       <r>    2.3739   -0.0000 </r>
       <r>    2.7945   -0.0000 </r>
       <r>    3.2174   -0.0000 </r>
       <r>    3.4426   -0.0000 </r>
       <r>    3.6011   -0.0000 </r>
       <r>    3.8246   -0.0000 </r>
       <r>    4.0136   -0.0000 </r>
       <r>    4.3687   -0.0000 </r>
       <r>    4.7283   -0.0000 </r>
       <r>    5.3425   -0.0000 </r>
      </set>
      <set comment="kpoint 7">
       <r>  -22.6965    1.0000 </r>
       <r>  -10.3746    1.0000 </r>
       <r>   -7.2116    1.0000 </r>
       <r>   -7.1395    1.0000 </r>
       <r>   -6.8454    1.0000 </r>
       <r>   -6.5727    1.0000 </r>
       <r>   -6.3004    1.0000 </r>
       <r>   -6.1395    1.0000 </r>
       <r>   -6.0798    1.0000 </r>
       <r>   -5.9556    1.0000 </r>
       <r>   -5.5967    1.0000 </r>
       <r>   -5.4048    1.0000 </r>
       <r>   -5.2733    1.0000 </r>
       <r>   -5.2313    1.0000 </r>
       <r>   -5.2034    1.0000 </r>
       <r>   -5.0892    1.0000 </r>
       <r>   -5.0428    1.0000 </r>
       <r>   -4.9481    1.0000 </r>
       <r>   -4.8984    1.0000 </r>
       <r>   -4.7280    1.0000 </r>
       <r>   -4.7222    1.0000 </r>
       <r>   -4.7124    1.0000 </r>
       <r>   -4.6389    1.0000 </r>
       <r>   -4.5533    1.0000 </r>
       <r>   -4.5404    1.0000 </r>
       <r>   -4.3711    1.0000 </r>
       <r>   -4.3448    1.0000 </r>
       <r>   -4.3327    1.0000 </r>
       <r>   -4.2730    1.0000 </r>
       <r>   -4.2651    1.0000 </r>
       <r>   -4.1701    1.0000 </r>
       <r>   -4.1514    1.0000 </r>
       <r>   -4.1281    1.0000 </r>
       <r>   -3.9252    1.0000 </r>
       <r>   -3.8194    1.0000 </r>
       <r>   -3.7245    1.0000 </r>
       <r>   -3.7150    1.0000 </r>
       <r>   -3.6875    1.0000 </r>
       <r>   -3.5929    1.0000 </r>
       <r>   -3.5521    1.0000 </r>
       <r>   -3.5042    1.0000 </r>
       <r>   -3.4755    1.0000 </r>
       <r>   -3.4495    1.0000 </r>
       <r>   -3.4188    1.0000 </r>
       <r>   -3.3354    1.0000 </r>
       <r>   -3.2398    1.0000 </r>
       <r>   -3.1058    1.0000 </r>
       <r>   -3.0375    1.0000 </r>
       <r>   -2.9095    1.0000 </r>
       <r>   -2.8762    1.0000 </r>
       <r>   -2.8350    1.0000 </r>
       <r>   -2.7443    1.0000 </r>
       <r>   -2.7324    1.0000 </r>
       <r>   -2.6448    1.0000 </r>
       <r>   -2.5864    1.0000 </r>
       <r>   -2.5416    1.0000 </r>
       <r>   -2.3410    1.0000 </r>
       <r>   -2.2226    1.0000 </r>
       <r>   -2.1808    1.0000 </r>
       <r>   -2.1483    1.0000 </r>
       <r>   -2.0668    1.0000 </r>
       <r>   -2.0263    1.0000 </r>
       <r>   -1.9499    1.0000 </r>
       <r>   -1.9099    1.0000 </r>
       <r>   -1.7882    1.0000 </r>
       <r>   -1.6955    1.0000 </r>
       <r>   -1.5962    1.0000 </r>
       <r>   -1.5291    1.0000 </r>
       <r>   -1.4701    1.0000 </r>
       <r>   -1.4062    1.0000 </r>
       <r>   -1.3734    1.0000 </r>
       <r>   -1.3049    1.0000 </r>
       <r>   -1.2372    1.0000 </r>
       <r>   -1.2089    1.0000 </r>
       <r>   -1.1545    1.0000 </r>
       <r>   -1.0371    1.0000 </r>
       <r>   -0.9857    1.0000 </r>
       <r>   -0.8335    1.0000 </r>
       <r>   -0.7917    1.0000 </r>
       <r>   -0.7162    1.0001 </r>
       <r>   -0.6667    1.0003 </r>
       <r>   -0.5038    1.0080 </r>
       <r>   -0.3839    1.0317 </r>
       <r>   -0.3798    1.0325 </r>
       <r>   -0.3549    1.0353 </r>
       <r>   -0.2897    1.0163 </r>
       <r>   -0.1492    0.6873 </r>
       <r>   -0.0945    0.4611 </r>
       <r>    0.0009    0.1176 </r>
       <r>    0.2417   -0.0174 </r>
       <r>    0.3137   -0.0060 </r>
       <r>    0.4124   -0.0008 </r>
       <r>    1.0878   -0.0000 </r>
       <r>    1.5521   -0.0000 </r>
       <r>    2.2715   -0.0000 </r>
       <r>    2.7931   -0.0000 </r>
       <r>    3.2277   -0.0000 </r>
       <r>    3.6832   -0.0000 </r>
       <r>    3.7221   -0.0000 </r>
       <r>    4.1102   -0.0000 </r>
       <r>    4.6884   -0.0000 </r>
       <r>    4.9818   -0.0000 </r>
       <r>    5.3140   -0.0000 </r>
       <r>    5.4368    0.0000 </r>
      </set>
      <set comment="kpoint 8">
       <r>  -22.6966    1.0000 </r>
       <r>  -10.4125    1.0000 </r>
       <r>   -8.1623    1.0000 </r>
       <r>   -7.0889    1.0000 </r>
       <r>   -6.7376    1.0000 </r>
       <r>   -6.5951    1.0000 </r>
       <r>   -6.3411    1.0000 </r>
       <r>   -6.2942    1.0000 </r>
       <r>   -6.2210    1.0000 </r>
       <r>   -5.9190    1.0000 </r>
       <r>   -5.8615    1.0000 </r>
       <r>   -5.8514    1.0000 </r>
       <r>   -5.7077    1.0000 </r>
       <r>   -5.6175    1.0000 </r>
       <r>   -5.5804    1.0000 </r>
       <r>   -5.4310    1.0000 </r>
       <r>   -5.3538    1.0000 </r>
       <r>   -5.2714    1.0000 </r>
       <r>   -5.2104    1.0000 </r>
       <r>   -5.1746    1.0000 </r>
       <r>   -4.9963    1.0000 </r>
       <r>   -4.9065    1.0000 </r>
       <r>   -4.8014    1.0000 </r>
       <r>   -4.7129    1.0000 </r>
       <r>   -4.5198    1.0000 </r>
       <r>   -4.4729    1.0000 </r>
       <r>   -4.4099    1.0000 </r>
       <r>   -4.2814    1.0000 </r>
       <r>   -4.1888    1.0000 </r>
       <r>   -4.0734    1.0000 </r>
       <r>   -3.9705    1.0000 </r>
       <r>   -3.8972    1.0000 </r>
       <r>   -3.8153    1.0000 </r>
       <r>   -3.6649    1.0000 </r>
       <r>   -3.6278    1.0000 </r>
       <r>   -3.5462    1.0000 </r>
       <r>   -3.5052    1.0000 </r>
       <r>   -3.4414    1.0000 </r>
       <r>   -3.3270    1.0000 </r>
       <r>   -3.3179    1.0000 </r>
       <r>   -3.2885    1.0000 </r>
       <r>   -3.2271    1.0000 </r>
       <r>   -3.1892    1.0000 </r>
       <r>   -3.1526    1.0000 </r>
       <r>   -3.0735    1.0000 </r>
       <r>   -3.0476    1.0000 </r>
       <r>   -2.9297    1.0000 </r>
       <r>   -2.8551    1.0000 </r>
       <r>   -2.7972    1.0000 </r>
       <r>   -2.7415    1.0000 </r>
       <r>   -2.7003    1.0000 </r>
       <r>   -2.6175    1.0000 </r>
       <r>   -2.4416    1.0000 </r>
       <r>   -2.4030    1.0000 </r>
       <r>   -2.3483    1.0000 </r>
       <r>   -2.3170    1.0000 </r>
       <r>   -2.2826    1.0000 </r>
       <r>   -2.1868    1.0000 </r>
       <r>   -2.1617    1.0000 </r>
       <r>   -2.0824    1.0000 </r>
       <r>   -2.0292    1.0000 </r>
       <r>   -2.0180    1.0000 </r>
       <r>   -1.9739    1.0000 </r>
       <r>   -1.8973    1.0000 </r>
       <r>   -1.7052    1.0000 </r>
       <r>   -1.5646    1.0000 </r>
       <r>   -1.5031    1.0000 </r>
       <r>   -1.4233    1.0000 </r>
       <r>   -1.3799    1.0000 </r>
       <r>   -1.3064    1.0000 </r>
       <r>   -1.1732    1.0000 </r>
       <r>   -1.1307    1.0000 </r>
       <r>   -1.0758    1.0000 </r>
       <r>   -1.0255    1.0000 </r>
       <r>   -0.9815    1.0000 </r>
       <r>   -0.8121    1.0000 </r>
       <r>   -0.6212    1.0008 </r>
       <r>   -0.5210    1.0060 </r>
       <r>   -0.4720    1.0129 </r>
       <r>   -0.4421    1.0189 </r>
       <r>   -0.3880    1.0310 </r>
       <r>   -0.3584    1.0351 </r>
       <r>   -0.3267    1.0333 </r>
       <r>   -0.2612    0.9869 </r>
       <r>   -0.1116    0.5333 </r>
       <r>   -0.1054    0.5072 </r>
       <r>   -0.0287    0.2061 </r>
       <r>    0.0291    0.0535 </r>
       <r>    0.0844   -0.0178 </r>
       <r>    0.2108   -0.0243 </r>
       <r>    0.2540   -0.0149 </r>
       <r>    0.7474   -0.0000 </r>
       <r>    1.0740   -0.0000 </r>
       <r>    1.2823   -0.0000 </r>
       <r>    2.3739   -0.0000 </r>
       <r>    2.7945   -0.0000 </r>
       <r>    3.2174   -0.0000 </r>
       <r>    3.4426   -0.0000 </r>
       <r>    3.6010   -0.0000 </r>
       <r>    3.8246   -0.0000 </r>
       <r>    4.0136   -0.0000 </r>
       <r>    4.3689   -0.0000 </r>
       <r>    4.7283   -0.0000 </r>
       <r>    5.3425   -0.0000 </r>
      </set>
      <set comment="kpoint 9">
       <r>  -22.6967    1.0000 </r>
       <r>  -10.3132    1.0000 </r>
       <r>   -7.9188    1.0000 </r>
       <r>   -7.0398    1.0000 </r>
       <r>   -6.8879    1.0000 </r>
       <r>   -6.6640    1.0000 </r>
       <r>   -6.4526    1.0000 </r>
       <r>   -6.2728    1.0000 </r>
       <r>   -6.0314    1.0000 </r>
       <r>   -5.7262    1.0000 </r>
       <r>   -5.6728    1.0000 </r>
       <r>   -5.6440    1.0000 </r>
       <r>   -5.5849    1.0000 </r>
       <r>   -5.5506    1.0000 </r>
       <r>   -5.5169    1.0000 </r>
       <r>   -5.4533    1.0000 </r>
       <r>   -5.2139    1.0000 </r>
       <r>   -5.1482    1.0000 </r>
       <r>   -5.1221    1.0000 </r>
       <r>   -5.0648    1.0000 </r>
       <r>   -4.9465    1.0000 </r>
       <r>   -4.9082    1.0000 </r>
       <r>   -4.6189    1.0000 </r>
       <r>   -4.5740    1.0000 </r>
       <r>   -4.4641    1.0000 </r>
       <r>   -4.4234    1.0000 </r>
       <r>   -4.3965    1.0000 </r>
       <r>   -4.3327    1.0000 </r>
       <r>   -4.1814    1.0000 </r>
       <r>   -4.1439    1.0000 </r>
       <r>   -4.0637    1.0000 </r>
       <r>   -4.0154    1.0000 </r>
       <r>   -3.8096    1.0000 </r>
       <r>   -3.7509    1.0000 </r>
       <r>   -3.7284    1.0000 </r>
       <r>   -3.6519    1.0000 </r>
       <r>   -3.5677    1.0000 </r>
       <r>   -3.5228    1.0000 </r>
       <r>   -3.4890    1.0000 </r>
       <r>   -3.3507    1.0000 </r>
       <r>   -3.2932    1.0000 </r>
       <r>   -3.2346    1.0000 </r>
       <r>   -3.1965    1.0000 </r>
       <r>   -3.0714    1.0000 </r>
       <r>   -2.9813    1.0000 </r>
       <r>   -2.9325    1.0000 </r>
       <r>   -2.9027    1.0000 </r>
       <r>   -2.8705    1.0000 </r>
       <r>   -2.8634    1.0000 </r>
       <r>   -2.7735    1.0000 </r>
       <r>   -2.7418    1.0000 </r>
       <r>   -2.6511    1.0000 </r>
       <r>   -2.5869    1.0000 </r>
       <r>   -2.5557    1.0000 </r>
       <r>   -2.5383    1.0000 </r>
       <r>   -2.4734    1.0000 </r>
       <r>   -2.4090    1.0000 </r>
       <r>   -2.3117    1.0000 </r>
       <r>   -2.2264    1.0000 </r>
       <r>   -2.1728    1.0000 </r>
       <r>   -2.1535    1.0000 </r>
       <r>   -2.1066    1.0000 </r>
       <r>   -2.0164    1.0000 </r>
       <r>   -1.7920    1.0000 </r>
       <r>   -1.7576    1.0000 </r>
       <r>   -1.6506    1.0000 </r>
       <r>   -1.6037    1.0000 </r>
       <r>   -1.5248    1.0000 </r>
       <r>   -1.4824    1.0000 </r>
       <r>   -1.4029    1.0000 </r>
       <r>   -1.3740    1.0000 </r>
       <r>   -1.3234    1.0000 </r>
       <r>   -1.2510    1.0000 </r>
       <r>   -1.2093    1.0000 </r>
       <r>   -1.1772    1.0000 </r>
       <r>   -1.1063    1.0000 </r>
       <r>   -1.0423    1.0000 </r>
       <r>   -0.9233    1.0000 </r>
       <r>   -0.7746    1.0000 </r>
       <r>   -0.6814    1.0002 </r>
       <r>   -0.5896    1.0016 </r>
       <r>   -0.5262    1.0055 </r>
       <r>   -0.3436    1.0354 </r>
       <r>   -0.1896    0.8290 </r>
       <r>   -0.1663    0.7513 </r>
       <r>   -0.1011    0.4890 </r>
       <r>   -0.0705    0.3619 </r>
       <r>    0.1019   -0.0278 </r>
       <r>    0.1579   -0.0345 </r>
       <r>    0.2753   -0.0111 </r>
       <r>    1.0721   -0.0000 </r>
       <r>    1.6911   -0.0000 </r>
       <r>    1.7329   -0.0000 </r>
       <r>    1.8959   -0.0000 </r>
       <r>    2.0851   -0.0000 </r>
       <r>    2.3370   -0.0000 </r>
       <r>    2.7918   -0.0000 </r>
       <r>    2.9639   -0.0000 </r>
       <r>    3.3602   -0.0000 </r>
       <r>    4.0680   -0.0000 </r>
       <r>    4.1566   -0.0000 </r>
       <r>    4.6016   -0.0000 </r>
       <r>    5.4195    0.0000 </r>
       <r>    5.7636    0.0000 </r>
      </set>
      <set comment="kpoint 10">
       <r>  -22.6966    1.0000 </r>
       <r>  -10.3292    1.0000 </r>
       <r>   -8.1776    1.0000 </r>
       <r>   -7.1068    1.0000 </r>
       <r>   -6.7135    1.0000 </r>
       <r>   -6.5860    1.0000 </r>
       <r>   -6.4153    1.0000 </r>
       <r>   -6.2955    1.0000 </r>
       <r>   -6.2134    1.0000 </r>
       <r>   -5.8929    1.0000 </r>
       <r>   -5.8570    1.0000 </r>
       <r>   -5.8005    1.0000 </r>
       <r>   -5.7276    1.0000 </r>
       <r>   -5.5954    1.0000 </r>
       <r>   -5.5718    1.0000 </r>
       <r>   -5.4405    1.0000 </r>
       <r>   -5.4197    1.0000 </r>
       <r>   -5.3052    1.0000 </r>
       <r>   -5.2162    1.0000 </r>
       <r>   -5.2017    1.0000 </r>
       <r>   -5.0074    1.0000 </r>
       <r>   -4.9534    1.0000 </r>
       <r>   -4.8221    1.0000 </r>
       <r>   -4.6815    1.0000 </r>
       <r>   -4.5257    1.0000 </r>
       <r>   -4.4727    1.0000 </r>
       <r>   -4.4326    1.0000 </r>
       <r>   -4.3093    1.0000 </r>
       <r>   -4.1733    1.0000 </r>
       <r>   -4.0949    1.0000 </r>
       <r>   -3.9892    1.0000 </r>
       <r>   -3.9037    1.0000 </r>
       <r>   -3.8513    1.0000 </r>
       <r>   -3.6161    1.0000 </r>
       <r>   -3.5953    1.0000 </r>
       <r>   -3.5643    1.0000 </r>
       <r>   -3.5590    1.0000 </r>
       <r>   -3.4120    1.0000 </r>
       <r>   -3.3512    1.0000 </r>
       <r>   -3.3071    1.0000 </r>
       <r>   -3.2859    1.0000 </r>
       <r>   -3.2472    1.0000 </r>
       <r>   -3.1923    1.0000 </r>
       <r>   -3.1126    1.0000 </r>
       <r>   -3.0727    1.0000 </r>
       <r>   -3.0102    1.0000 </r>
       <r>   -2.9700    1.0000 </r>
       <r>   -2.8691    1.0000 </r>
       <r>   -2.8341    1.0000 </r>
       <r>   -2.7756    1.0000 </r>
       <r>   -2.7314    1.0000 </r>
       <r>   -2.4868    1.0000 </r>
       <r>   -2.4662    1.0000 </r>
       <r>   -2.3965    1.0000 </r>
       <r>   -2.3651    1.0000 </r>
       <r>   -2.3184    1.0000 </r>
       <r>   -2.2978    1.0000 </r>
       <r>   -2.2395    1.0000 </r>
       <r>   -2.1392    1.0000 </r>
       <r>   -2.0856    1.0000 </r>
       <r>   -2.0371    1.0000 </r>
       <r>   -2.0075    1.0000 </r>
       <r>   -1.9465    1.0000 </r>
       <r>   -1.8777    1.0000 </r>
       <r>   -1.5970    1.0000 </r>
       <r>   -1.5863    1.0000 </r>
       <r>   -1.5114    1.0000 </r>
       <r>   -1.4285    1.0000 </r>
       <r>   -1.3831    1.0000 </r>
       <r>   -1.2484    1.0000 </r>
       <r>   -1.1762    1.0000 </r>
       <r>   -1.1322    1.0000 </r>
       <r>   -1.0756    1.0000 </r>
       <r>   -1.0056    1.0000 </r>
       <r>   -0.9904    1.0000 </r>
       <r>   -0.7780    1.0000 </r>
       <r>   -0.6523    1.0004 </r>
       <r>   -0.5826    1.0018 </r>
       <r>   -0.5027    1.0081 </r>
       <r>   -0.4348    1.0205 </r>
       <r>   -0.4019    1.0280 </r>
       <r>   -0.3895    1.0307 </r>
       <r>   -0.2661    0.9931 </r>
       <r>   -0.2516    0.9730 </r>
       <r>   -0.1412    0.6558 </r>
       <r>   -0.1274    0.5996 </r>
       <r>   -0.0136    0.1583 </r>
       <r>    0.0568    0.0094 </r>
       <r>    0.0843   -0.0177 </r>
       <r>    0.2204   -0.0221 </r>
       <r>    0.2640   -0.0130 </r>
       <r>    0.8323   -0.0000 </r>
       <r>    1.0049   -0.0000 </r>
       <r>    1.3280   -0.0000 </r>
       <r>    2.6059   -0.0000 </r>
       <r>    2.6968   -0.0000 </r>
       <r>    2.8640   -0.0000 </r>
       <r>    3.5017   -0.0000 </r>
       <r>    3.6324   -0.0000 </r>
       <r>    3.9176   -0.0000 </r>
       <r>    4.1559   -0.0000 </r>
       <r>    4.6039   -0.0000 </r>
       <r>    4.7817   -0.0000 </r>
       <r>    5.1584   -0.0000 </r>
      </set>
      <set comment="kpoint 11">
       <r>  -22.6967    1.0000 </r>
       <r>  -10.3132    1.0000 </r>
       <r>   -7.9188    1.0000 </r>
       <r>   -7.0399    1.0000 </r>
       <r>   -6.8879    1.0000 </r>
       <r>   -6.6640    1.0000 </r>
       <r>   -6.4526    1.0000 </r>
       <r>   -6.2728    1.0000 </r>
       <r>   -6.0314    1.0000 </r>
       <r>   -5.7262    1.0000 </r>
       <r>   -5.6728    1.0000 </r>
       <r>   -5.6440    1.0000 </r>
       <r>   -5.5849    1.0000 </r>
       <r>   -5.5506    1.0000 </r>
       <r>   -5.5169    1.0000 </r>
       <r>   -5.4533    1.0000 </r>
       <r>   -5.2139    1.0000 </r>
       <r>   -5.1482    1.0000 </r>
       <r>   -5.1221    1.0000 </r>
       <r>   -5.0648    1.0000 </r>
       <r>   -4.9465    1.0000 </r>
       <r>   -4.9082    1.0000 </r>
       <r>   -4.6190    1.0000 </r>
       <r>   -4.5740    1.0000 </r>
       <r>   -4.4641    1.0000 </r>
       <r>   -4.4234    1.0000 </r>
       <r>   -4.3965    1.0000 </r>
       <r>   -4.3326    1.0000 </r>
       <r>   -4.1814    1.0000 </r>
       <r>   -4.1439    1.0000 </r>
       <r>   -4.0637    1.0000 </r>
       <r>   -4.0154    1.0000 </r>
       <r>   -3.8096    1.0000 </r>
       <r>   -3.7509    1.0000 </r>
       <r>   -3.7284    1.0000 </r>
       <r>   -3.6519    1.0000 </r>
       <r>   -3.5677    1.0000 </r>
       <r>   -3.5228    1.0000 </r>
       <r>   -3.4890    1.0000 </r>
       <r>   -3.3507    1.0000 </r>
       <r>   -3.2932    1.0000 </r>
       <r>   -3.2346    1.0000 </r>
       <r>   -3.1965    1.0000 </r>
       <r>   -3.0714    1.0000 </r>
       <r>   -2.9813    1.0000 </r>
       <r>   -2.9325    1.0000 </r>
       <r>   -2.9027    1.0000 </r>
       <r>   -2.8705    1.0000 </r>
       <r>   -2.8634    1.0000 </r>
       <r>   -2.7735    1.0000 </r>
       <r>   -2.7418    1.0000 </r>
       <r>   -2.6511    1.0000 </r>
       <r>   -2.5869    1.0000 </r>
       <r>   -2.5557    1.0000 </r>
       <r>   -2.5383    1.0000 </r>
       <r>   -2.4734    1.0000 </r>
       <r>   -2.4090    1.0000 </r>
       <r>   -2.3117    1.0000 </r>
       <r>   -2.2264    1.0000 </r>
       <r>   -2.1728    1.0000 </r>
       <r>   -2.1535    1.0000 </r>
       <r>   -2.1066    1.0000 </r>
       <r>   -2.0164    1.0000 </r>
       <r>   -1.7920    1.0000 </r>
       <r>   -1.7576    1.0000 </r>
       <r>   -1.6506    1.0000 </r>
       <r>   -1.6037    1.0000 </r>
       <r>   -1.5248    1.0000 </r>
       <r>   -1.4824    1.0000 </r>
       <r>   -1.4029    1.0000 </r>
       <r>   -1.3740    1.0000 </r>
       <r>   -1.3234    1.0000 </r>
       <r>   -1.2510    1.0000 </r>
       <r>   -1.2093    1.0000 </r>
       <r>   -1.1772    1.0000 </r>
       <r>   -1.1063    1.0000 </r>
       <r>   -1.0423    1.0000 </r>
       <r>   -0.9233    1.0000 </r>
       <r>   -0.7746    1.0000 </r>
       <r>   -0.6814    1.0002 </r>
       <r>   -0.5896    1.0016 </r>
       <r>   -0.5262    1.0055 </r>
       <r>   -0.3436    1.0354 </r>
       <r>   -0.1896    0.8290 </r>
       <r>   -0.1663    0.7513 </r>
       <r>   -0.1011    0.4890 </r>
       <r>   -0.0705    0.3619 </r>
       <r>    0.1019   -0.0278 </r>
       <r>    0.1579   -0.0345 </r>
       <r>    0.2753   -0.0111 </r>
       <r>    1.0721   -0.0000 </r>
       <r>    1.6911   -0.0000 </r>
       <r>    1.7329   -0.0000 </r>
       <r>    1.8959   -0.0000 </r>
       <r>    2.0852   -0.0000 </r>
       <r>    2.3370   -0.0000 </r>
       <r>    2.7918   -0.0000 </r>
       <r>    2.9640   -0.0000 </r>
       <r>    3.3603   -0.0000 </r>
       <r>    4.0680   -0.0000 </r>
       <r>    4.1565   -0.0000 </r>
       <r>    4.6015   -0.0000 </r>
       <r>    5.4194    0.0000 </r>
       <r>    5.7636    0.0000 </r>
      </set>
      <set comment="kpoint 12">
       <r>  -22.6964    1.0000 </r>
       <r>  -10.2896    1.0000 </r>
       <r>   -7.2591    1.0000 </r>
       <r>   -7.1542    1.0000 </r>
       <r>   -6.7689    1.0000 </r>
       <r>   -6.6678    1.0000 </r>
       <r>   -6.2752    1.0000 </r>
       <r>   -6.1390    1.0000 </r>
       <r>   -6.0673    1.0000 </r>
       <r>   -5.9557    1.0000 </r>
       <r>   -5.5773    1.0000 </r>
       <r>   -5.3437    1.0000 </r>
       <r>   -5.3149    1.0000 </r>
       <r>   -5.2815    1.0000 </r>
       <r>   -5.1880    1.0000 </r>
       <r>   -5.1268    1.0000 </r>
       <r>   -5.0475    1.0000 </r>
       <r>   -4.9860    1.0000 </r>
       <r>   -4.9238    1.0000 </r>
       <r>   -4.7538    1.0000 </r>
       <r>   -4.7356    1.0000 </r>
       <r>   -4.7003    1.0000 </r>
       <r>   -4.6667    1.0000 </r>
       <r>   -4.5635    1.0000 </r>
       <r>   -4.5484    1.0000 </r>
       <r>   -4.3644    1.0000 </r>
       <r>   -4.3455    1.0000 </r>
       <r>   -4.3251    1.0000 </r>
       <r>   -4.3026    1.0000 </r>
       <r>   -4.2500    1.0000 </r>
       <r>   -4.2180    1.0000 </r>
       <r>   -4.1722    1.0000 </r>
       <r>   -4.1444    1.0000 </r>
       <r>   -3.9255    1.0000 </r>
       <r>   -3.7539    1.0000 </r>
       <r>   -3.7327    1.0000 </r>
       <r>   -3.7034    1.0000 </r>
       <r>   -3.6684    1.0000 </r>
       <r>   -3.6109    1.0000 </r>
       <r>   -3.5383    1.0000 </r>
       <r>   -3.5274    1.0000 </r>
       <r>   -3.4593    1.0000 </r>
       <r>   -3.4501    1.0000 </r>
       <r>   -3.4333    1.0000 </r>
       <r>   -3.3272    1.0000 </r>
       <r>   -3.1795    1.0000 </r>
       <r>   -3.0803    1.0000 </r>
       <r>   -3.0340    1.0000 </r>
       <r>   -2.9285    1.0000 </r>
       <r>   -2.8976    1.0000 </r>
       <r>   -2.8547    1.0000 </r>
       <r>   -2.7818    1.0000 </r>
       <r>   -2.7381    1.0000 </r>
       <r>   -2.7303    1.0000 </r>
       <r>   -2.5956    1.0000 </r>
       <r>   -2.5144    1.0000 </r>
       <r>   -2.3535    1.0000 </r>
       <r>   -2.2288    1.0000 </r>
       <r>   -2.1734    1.0000 </r>
       <r>   -2.1437    1.0000 </r>
       <r>   -2.1171    1.0000 </r>
       <r>   -2.0104    1.0000 </r>
       <r>   -1.9014    1.0000 </r>
       <r>   -1.8290    1.0000 </r>
       <r>   -1.7885    1.0000 </r>
       <r>   -1.7316    1.0000 </r>
       <r>   -1.6255    1.0000 </r>
       <r>   -1.5631    1.0000 </r>
       <r>   -1.4742    1.0000 </r>
       <r>   -1.3708    1.0000 </r>
       <r>   -1.3400    1.0000 </r>
       <r>   -1.2768    1.0000 </r>
       <r>   -1.2212    1.0000 </r>
       <r>   -1.1642    1.0000 </r>
       <r>   -1.1179    1.0000 </r>
       <r>   -1.0165    1.0000 </r>
       <r>   -0.9511    1.0000 </r>
       <r>   -0.8665    1.0000 </r>
       <r>   -0.8029    1.0000 </r>
       <r>   -0.7618    1.0000 </r>
       <r>   -0.6716    1.0002 </r>
       <r>   -0.5148    1.0067 </r>
       <r>   -0.4121    1.0257 </r>
       <r>   -0.3813    1.0322 </r>
       <r>   -0.3416    1.0353 </r>
       <r>   -0.2708    0.9986 </r>
       <r>   -0.1764    0.7865 </r>
       <r>   -0.1178    0.5597 </r>
       <r>    0.1309   -0.0350 </r>
       <r>    0.2330   -0.0193 </r>
       <r>    0.2867   -0.0093 </r>
       <r>    0.3560   -0.0027 </r>
       <r>    1.1450   -0.0000 </r>
       <r>    1.8436   -0.0000 </r>
       <r>    1.9161   -0.0000 </r>
       <r>    2.9746   -0.0000 </r>
       <r>    3.2079   -0.0000 </r>
       <r>    3.6583   -0.0000 </r>
       <r>    3.6967   -0.0000 </r>
       <r>    4.2387   -0.0000 </r>
       <r>    4.6184   -0.0000 </r>
       <r>    5.0406   -0.0000 </r>
       <r>    5.2444   -0.0000 </r>
       <r>    5.5270    0.0000 </r>
      </set>
      <set comment="kpoint 13">
       <r>  -22.6964    1.0000 </r>
       <r>  -10.2896    1.0000 </r>
       <r>   -7.2591    1.0000 </r>
       <r>   -7.1542    1.0000 </r>
       <r>   -6.7689    1.0000 </r>
       <r>   -6.6678    1.0000 </r>
       <r>   -6.2753    1.0000 </r>
       <r>   -6.1390    1.0000 </r>
       <r>   -6.0673    1.0000 </r>
       <r>   -5.9557    1.0000 </r>
       <r>   -5.5773    1.0000 </r>
       <r>   -5.3437    1.0000 </r>
       <r>   -5.3149    1.0000 </r>
       <r>   -5.2815    1.0000 </r>
       <r>   -5.1880    1.0000 </r>
       <r>   -5.1268    1.0000 </r>
       <r>   -5.0475    1.0000 </r>
       <r>   -4.9860    1.0000 </r>
       <r>   -4.9238    1.0000 </r>
       <r>   -4.7538    1.0000 </r>
       <r>   -4.7356    1.0000 </r>
       <r>   -4.7003    1.0000 </r>
       <r>   -4.6667    1.0000 </r>
       <r>   -4.5635    1.0000 </r>
       <r>   -4.5484    1.0000 </r>
       <r>   -4.3644    1.0000 </r>
       <r>   -4.3455    1.0000 </r>
       <r>   -4.3251    1.0000 </r>
       <r>   -4.3026    1.0000 </r>
       <r>   -4.2500    1.0000 </r>
       <r>   -4.2180    1.0000 </r>
       <r>   -4.1722    1.0000 </r>
       <r>   -4.1444    1.0000 </r>
       <r>   -3.9255    1.0000 </r>
       <r>   -3.7540    1.0000 </r>
       <r>   -3.7326    1.0000 </r>
       <r>   -3.7034    1.0000 </r>
       <r>   -3.6684    1.0000 </r>
       <r>   -3.6109    1.0000 </r>
       <r>   -3.5383    1.0000 </r>
       <r>   -3.5274    1.0000 </r>
       <r>   -3.4593    1.0000 </r>
       <r>   -3.4501    1.0000 </r>
[...]
        <r>  0.0001  0.0010  0.0002 </r>
        <r>  0.0000  0.0054  0.0000 </r>
       </set>
       <set comment="band 83">
        <r>  0.0004  0.0008  0.0357 </r>
        <r>  0.0002  0.0002  0.0159 </r>
        <r>  0.0027  0.0021  0.1383 </r>
        <r>  0.0004  0.0007  0.0889 </r>
        <r>  0.0000  0.0003  0.0105 </r>
        <r>  0.0001  0.0001  0.0424 </r>
        <r>  0.0000  0.0003  0.0123 </r>
        <r>  0.0000  0.0002  0.1510 </r>
        <r>  0.0000  0.0002  0.0255 </r>
        <r>  0.0005  0.0002  0.0313 </r>
        <r>  0.0006  0.0006  0.1208 </r>
        <r>  0.0003  0.0008  0.1247 </r>
        <r>  0.0015  0.0012  0.0277 </r>
        <r>  0.0001  0.0012  0.0267 </r>
        <r>  0.0001  0.0013  0.0347 </r>
        <r>  0.0002  0.0011  0.0373 </r>
        <r>  0.0001  0.0007  0.0002 </r>
        <r>  0.0000  0.0017  0.0000 </r>
       </set>
       <set comment="band 84">
        <r>  0.0014  0.0019  0.0973 </r>
        <r>  0.0001  0.0007  0.0720 </r>
        <r>  0.0001  0.0004  0.0518 </r>
        <r>  0.0000  0.0003  0.0410 </r>
        <r>  0.0000  0.0002  0.0491 </r>
        <r>  0.0000  0.0002  0.0598 </r>
        <r>  0.0000  0.0005  0.0606 </r>
        <r>  0.0000  0.0001  0.0530 </r>
        <r>  0.0002  0.0002  0.0705 </r>
        <r>  0.0000  0.0005  0.0892 </r>
        <r>  0.0001  0.0003  0.0292 </r>
        <r>  0.0003  0.0002  0.0354 </r>
        <r>  0.0001  0.0014  0.0544 </r>
        <r>  0.0004  0.0017  0.0596 </r>
        <r>  0.0005  0.0017  0.0473 </r>
        <r>  0.0001  0.0025  0.0630 </r>
        <r>  0.0001  0.0001  0.0001 </r>
        <r>  0.0000  0.0003  0.0000 </r>
       </set>
       <set comment="band 85">
        <r>  0.0002  0.0002  0.0722 </r>
        <r>  0.0004  0.0019  0.0840 </r>
        <r>  0.0007  0.0009  0.0653 </r>
        <r>  0.0011  0.0007  0.0589 </r>
        <r>  0.0001  0.0003  0.0559 </r>
        <r>  0.0001  0.0004  0.1292 </r>
        <r>  0.0000  0.0001  0.0775 </r>
        <r>  0.0000  0.0004  0.0626 </r>
        <r>  0.0003  0.0003  0.0800 </r>
        <r>  0.0004  0.0003  0.0713 </r>
        <r>  0.0001  0.0005  0.0300 </r>
        <r>  0.0002  0.0005  0.0500 </r>
        <r>  0.0002  0.0013  0.0039 </r>
        <r>  0.0010  0.0014  0.0300 </r>
        <r>  0.0000  0.0004  0.0290 </r>
        <r>  0.0005  0.0004  0.0273 </r>
        <r>  0.0002  0.0007  0.0001 </r>
        <r>  0.0000  0.0022  0.0000 </r>
       </set>
       <set comment="band 86">
        <r>  0.0001  0.0003  0.0426 </r>
        <r>  0.0005  0.0007  0.0877 </r>
        <r>  0.0000  0.0003  0.0299 </r>
        <r>  0.0007  0.0010  0.0602 </r>
        <r>  0.0003  0.0002  0.1168 </r>
        <r>  0.0000  0.0002  0.0547 </r>
        <r>  0.0002  0.0001  0.0910 </r>
        <r>  0.0000  0.0002  0.0267 </r>
        <r>  0.0004  0.0002  0.1142 </r>
        <r>  0.0001  0.0003  0.0475 </r>
        <r>  0.0001  0.0001  0.0791 </r>
        <r>  0.0002  0.0002  0.0450 </r>
        <r>  0.0001  0.0003  0.0149 </r>
        <r>  0.0008  0.0007  0.0603 </r>
        <r>  0.0004  0.0007  0.0108 </r>
        <r>  0.0002  0.0004  0.0605 </r>
        <r>  0.0001  0.0002  0.0000 </r>
        <r>  0.0000  0.0010  0.0000 </r>
       </set>
       <set comment="band 87">
        <r>  0.0004  0.0002  0.0366 </r>
        <r>  0.0000  0.0002  0.0111 </r>
        <r>  0.0000  0.0003  0.0670 </r>
        <r>  0.0019  0.0015  0.0941 </r>
        <r>  0.0002  0.0011  0.1771 </r>
        <r>  0.0001  0.0008  0.2094 </r>
        <r>  0.0000  0.0003  0.0330 </r>
        <r>  0.0001  0.0002  0.0384 </r>
        <r>  0.0000  0.0003  0.0220 </r>
        <r>  0.0001  0.0003  0.0325 </r>
        <r>  0.0004  0.0010  0.0869 </r>
        <r>  0.0006  0.0002  0.0842 </r>
        <r>  0.0007  0.0005  0.0044 </r>
        <r>  0.0006  0.0009  0.0129 </r>
        <r>  0.0004  0.0011  0.0091 </r>
        <r>  0.0000  0.0003  0.0150 </r>
        <r>  0.0001  0.0014  0.0002 </r>
        <r>  0.0000  0.0039  0.0000 </r>
       </set>
       <set comment="band 88">
        <r>  0.0002  0.0005  0.0528 </r>
        <r>  0.0006  0.0006  0.0579 </r>
        <r>  0.0003  0.0002  0.0182 </r>
        <r>  0.0001  0.0001  0.0121 </r>
        <r>  0.0000  0.0001  0.0324 </r>
        <r>  0.0000  0.0001  0.0234 </r>
        <r>  0.0002  0.0009  0.1611 </r>
        <r>  0.0003  0.0008  0.1809 </r>
        <r>  0.0000  0.0009  0.1465 </r>
        <r>  0.0006  0.0006  0.1288 </r>
        <r>  0.0000  0.0001  0.0243 </r>
        <r>  0.0000  0.0001  0.0236 </r>
        <r>  0.0004  0.0005  0.0303 </r>
        <r>  0.0000  0.0002  0.0350 </r>
        <r>  0.0002  0.0002  0.0089 </r>
        <r>  0.0001  0.0004  0.0142 </r>
        <r>  0.0000  0.0000  0.0000 </r>
        <r>  0.0000  0.0002  0.0000 </r>
       </set>
       <set comment="band 89">
        <r>  0.0022  0.0036  0.0404 </r>
        <r>  0.0041  0.0023  0.0207 </r>
        <r>  0.0061  0.0044  0.0464 </r>
        <r>  0.0111  0.0022  0.0301 </r>
        <r>  0.0013  0.0010  0.0421 </r>
        <r>  0.0007  0.0024  0.0343 </r>
        <r>  0.0002  0.0014  0.0353 </r>
        <r>  0.0009  0.0006  0.0248 </r>
        <r>  0.0041  0.0019  0.0331 </r>
        <r>  0.0075  0.0005  0.0591 </r>
        <r>  0.0027  0.0024  0.0293 </r>
        <r>  0.0000  0.0025  0.0636 </r>
        <r>  0.0053  0.0052  0.0843 </r>
        <r>  0.0010  0.0038  0.1157 </r>
        <r>  0.0056  0.0044  0.0707 </r>
        <r>  0.0009  0.0042  0.0699 </r>
        <r>  0.0037  0.0039  0.0007 </r>
        <r>  0.0003  0.0040  0.0000 </r>
       </set>
       <set comment="band 90">
        <r>  0.0053  0.0037  0.0339 </r>
        <r>  0.0054  0.0014  0.0259 </r>
        <r>  0.0057  0.0034  0.0310 </r>
        <r>  0.0039  0.0015  0.0151 </r>
        <r>  0.0024  0.0027  0.0594 </r>
        <r>  0.0011  0.0017  0.0424 </r>
        <r>  0.0064  0.0039  0.0452 </r>
        <r>  0.0008  0.0026  0.0689 </r>
        <r>  0.0051  0.0041  0.0537 </r>
        <r>  0.0040  0.0045  0.0580 </r>
        <r>  0.0161  0.0037  0.0611 </r>
        <r>  0.0027  0.0063  0.1095 </r>
        <r>  0.0037  0.0059  0.0227 </r>
        <r>  0.0069  0.0029  0.0287 </r>
        <r>  0.0031  0.0068  0.0207 </r>
        <r>  0.0117  0.0034  0.0494 </r>
        <r>  0.0005  0.0041  0.0005 </r>
        <r>  0.0000  0.0142  0.0000 </r>
       </set>
       <set comment="band 91">
        <r>  0.0032  0.0025  0.0302 </r>
        <r>  0.0072  0.0024  0.0252 </r>
        <r>  0.0056  0.0017  0.0094 </r>
        <r>  0.0021  0.0024  0.0319 </r>
        <r>  0.0041  0.0024  0.0566 </r>
        <r>  0.0009  0.0024  0.0554 </r>
        <r>  0.0016  0.0024  0.0453 </r>
        <r>  0.0051  0.0033  0.0415 </r>
        <r>  0.0093  0.0034  0.0534 </r>
        <r>  0.0012  0.0049  0.0684 </r>
        <r>  0.0013  0.0040  0.0429 </r>
        <r>  0.0111  0.0030  0.0540 </r>
        <r>  0.0130  0.0038  0.0308 </r>
        <r>  0.0013  0.0055  0.0660 </r>
        <r>  0.0104  0.0039  0.0509 </r>
        <r>  0.0054  0.0063  0.0898 </r>
        <r>  0.0001  0.0018  0.0003 </r>
        <r>  0.0000  0.0083  0.0000 </r>
       </set>
       <set comment="band 92">
        <r>  0.0188  0.0066  0.0788 </r>
        <r>  0.0027  0.0105  0.1136 </r>
        <r>  0.0116  0.0078  0.0987 </r>
        <r>  0.0035  0.0092  0.1062 </r>
        <r>  0.0029  0.0066  0.0350 </r>
        <r>  0.0095  0.0036  0.0393 </r>
        <r>  0.0040  0.0050  0.0474 </r>
        <r>  0.0056  0.0041  0.0504 </r>
        <r>  0.0011  0.0008  0.0273 </r>
        <r>  0.0013  0.0025  0.0152 </r>
        <r>  0.0008  0.0018  0.0103 </r>
        <r>  0.0012  0.0012  0.0119 </r>
        <r>  0.0023  0.0043  0.0262 </r>
        <r>  0.0103  0.0040  0.0247 </r>
        <r>  0.0021  0.0038  0.0242 </r>
        <r>  0.0037  0.0027  0.0286 </r>
        <r>  0.0001  0.0007  0.0001 </r>
        <r>  0.0000  0.0032  0.0000 </r>
       </set>
       <set comment="band 93">
        <r>  0.0042  0.0087  0.0332 </r>
        <r>  0.0258  0.0104  0.0324 </r>
        <r>  0.0056  0.0084  0.0364 </r>
        <r>  0.0237  0.0103  0.0317 </r>
        <r>  0.0026  0.0032  0.0376 </r>
        <r>  0.0060  0.0048  0.0234 </r>
        <r>  0.0013  0.0038  0.0400 </r>
        <r>  0.0041  0.0055  0.0137 </r>
        <r>  0.0050  0.0051  0.0445 </r>
        <r>  0.0056  0.0080  0.0165 </r>
        <r>  0.0080  0.0069  0.0473 </r>
        <r>  0.0069  0.0066  0.0200 </r>
        <r>  0.0040  0.0120  0.0385 </r>
        <r>  0.0174  0.0053  0.0413 </r>
        <r>  0.0045  0.0097  0.0432 </r>
        <r>  0.0137  0.0051  0.0400 </r>
        <r>  0.0063  0.0109  0.0008 </r>
        <r>  0.0003  0.0158  0.0001 </r>
       </set>
       <set comment="band 94">
        <r>  0.0139  0.0102  0.0202 </r>
        <r>  0.0078  0.0079  0.0231 </r>
        <r>  0.0042  0.0051  0.0292 </r>
        <r>  0.0067  0.0061  0.0281 </r>
        <r>  0.0083  0.0046  0.0155 </r>
        <r>  0.0147  0.0040  0.0162 </r>
        <r>  0.0224  0.0024  0.0267 </r>
        <r>  0.0184  0.0032  0.0209 </r>
        <r>  0.0043  0.0036  0.0252 </r>
        <r>  0.0020  0.0045  0.0368 </r>
        <r>  0.0198  0.0109  0.0233 </r>
        <r>  0.0086  0.0072  0.0272 </r>
        <r>  0.0081  0.0217  0.0331 </r>
        <r>  0.0007  0.0091  0.0312 </r>
        <r>  0.0129  0.0166  0.0334 </r>
        <r>  0.0041  0.0029  0.0317 </r>
        <r>  0.0017  0.0365  0.0017 </r>
        <r>  0.0002  0.0479  0.0006 </r>
       </set>
       <set comment="band 95">
        <r>  0.0141  0.0086  0.0301 </r>
        <r>  0.0001  0.0037  0.0287 </r>
        <r>  0.0235  0.0145  0.0190 </r>
        <r>  0.0023  0.0065  0.0252 </r>
        <r>  0.0268  0.0035  0.0242 </r>
        <r>  0.0094  0.0052  0.0231 </r>
        <r>  0.0105  0.0054  0.0182 </r>
        <r>  0.0136  0.0051  0.0220 </r>
        <r>  0.0067  0.0109  0.0192 </r>
        <r>  0.0135  0.0055  0.0293 </r>
        <r>  0.0043  0.0083  0.0353 </r>
        <r>  0.0016  0.0024  0.0383 </r>
        <r>  0.0031  0.0103  0.0526 </r>
        <r>  0.0063  0.0087  0.0310 </r>
        <r>  0.0011  0.0187  0.0575 </r>
        <r>  0.0040  0.0126  0.0284 </r>
        <r>  0.0106  0.0155  0.0011 </r>
        <r>  0.0007  0.0163  0.0001 </r>
       </set>
       <set comment="band 96">
        <r>  0.0041  0.0026  0.0255 </r>
        <r>  0.0139  0.0152  0.0168 </r>
        <r>  0.0031  0.0026  0.0234 </r>
        <r>  0.0148  0.0174  0.0146 </r>
        <r>  0.0137  0.0088  0.0098 </r>
        <r>  0.0291  0.0077  0.0253 </r>
        <r>  0.0134  0.0085  0.0124 </r>
        <r>  0.0179  0.0086  0.0265 </r>
        <r>  0.0070  0.0062  0.0158 </r>
        <r>  0.0172  0.0046  0.0301 </r>
        <r>  0.0062  0.0113  0.0175 </r>
        <r>  0.0211  0.0098  0.0208 </r>
        <r>  0.0030  0.0084  0.0410 </r>
        <r>  0.0028  0.0122  0.0216 </r>
        <r>  0.0027  0.0086  0.0360 </r>
        <r>  0.0056  0.0154  0.0125 </r>
        <r>  0.0081  0.0381  0.0009 </r>
        <r>  0.0002  0.0316  0.0006 </r>
       </set>
       <set comment="band 97">
        <r>  0.0037  0.0043  0.0067 </r>
        <r>  0.0003  0.0062  0.0102 </r>
        <r>  0.0049  0.0023  0.0065 </r>
        <r>  0.0006  0.0024  0.0097 </r>
        <r>  0.0040  0.0065  0.0180 </r>
        <r>  0.0168  0.0052  0.0068 </r>
        <r>  0.0078  0.0027  0.0110 </r>
        <r>  0.0061  0.0024  0.0159 </r>
        <r>  0.0351  0.0063  0.0161 </r>
        <r>  0.0062  0.0050  0.0320 </r>
        <r>  0.0082  0.0051  0.0168 </r>
        <r>  0.0165  0.0055  0.0143 </r>
        <r>  0.0109  0.0077  0.0655 </r>
        <r>  0.0418  0.0096  0.0244 </r>
        <r>  0.0095  0.0070  0.0623 </r>
        <r>  0.0403  0.0084  0.0274 </r>
        <r>  0.0060  0.0666  0.0009 </r>
        <r>  0.0000  0.0440  0.0013 </r>
       </set>
       <set comment="band 98">
        <r>  0.0010  0.0111  0.0166 </r>
        <r>  0.0081  0.0084  0.0093 </r>
        <r>  0.0011  0.0111  0.0202 </r>
        <r>  0.0061  0.0065  0.0176 </r>
        <r>  0.0098  0.0057  0.0274 </r>
        <r>  0.0103  0.0070  0.0162 </r>
        <r>  0.0203  0.0111  0.0181 </r>
        <r>  0.0040  0.0114  0.0178 </r>
        <r>  0.0054  0.0047  0.0126 </r>
        <r>  0.0133  0.0044  0.0127 </r>
        <r>  0.0076  0.0070  0.0262 </r>
        <r>  0.0294  0.0073  0.0136 </r>
        <r>  0.0015  0.0177  0.0374 </r>
        <r>  0.0282  0.0035  0.0023 </r>
        <r>  0.0047  0.0164  0.0359 </r>
        <r>  0.0355  0.0044  0.0027 </r>
        <r>  0.0046  0.0793  0.0009 </r>
        <r>  0.0001  0.0421  0.0016 </r>
       </set>
       <set comment="band 99">
        <r>  0.0139  0.0064  0.0162 </r>
        <r>  0.0108  0.0067  0.0201 </r>
        <r>  0.0127  0.0059  0.0201 </r>
        <r>  0.0126  0.0075  0.0188 </r>
        <r>  0.0224  0.0114  0.0195 </r>
        <r>  0.0092  0.0096  0.0311 </r>
        <r>  0.0092  0.0104  0.0295 </r>
        <r>  0.0263  0.0124  0.0199 </r>
        <r>  0.0021  0.0059  0.0148 </r>
        <r>  0.0123  0.0082  0.0133 </r>
        <r>  0.0160  0.0099  0.0153 </r>
        <r>  0.0028  0.0052  0.0174 </r>
        <r>  0.0045  0.0023  0.0192 </r>
        <r>  0.0115  0.0017  0.0089 </r>
        <r>  0.0041  0.0029  0.0216 </r>
        <r>  0.0127  0.0012  0.0081 </r>
        <r>  0.0017  0.1072  0.0012 </r>
        <r>  0.0001  0.0573  0.0022 </r>
       </set>
       <set comment="band 100">
        <r>  0.0027  0.0190  0.0091 </r>
        <r>  0.0013  0.0010  0.0198 </r>
        <r>  0.0041  0.0211  0.0085 </r>
        <r>  0.0021  0.0003  0.0168 </r>
        <r>  0.0055  0.0161  0.0169 </r>
        <r>  0.0026  0.0051  0.0169 </r>
        <r>  0.0142  0.0105  0.0135 </r>
        <r>  0.0159  0.0066  0.0137 </r>
        <r>  0.0435  0.0103  0.0093 </r>
        <r>  0.0215  0.0127  0.0090 </r>
        <r>  0.0051  0.0085  0.0222 </r>
        <r>  0.0020  0.0059  0.0172 </r>
        <r>  0.0205  0.0125  0.0199 </r>
        <r>  0.0072  0.0165  0.0089 </r>
        <r>  0.0240  0.0128  0.0317 </r>
        <r>  0.0051  0.0130  0.0147 </r>
        <r>  0.0116  0.0645  0.0011 </r>
        <r>  0.0008  0.0245  0.0013 </r>
       </set>
       <set comment="band 101">
        <r>  0.0252  0.0154  0.0292 </r>
        <r>  0.0272  0.0145  0.0235 </r>
        <r>  0.0249  0.0121  0.0234 </r>
        <r>  0.0239  0.0130  0.0261 </r>
        <r>  0.0055  0.0061  0.0074 </r>
        <r>  0.0063  0.0171  0.0121 </r>
        <r>  0.0061  0.0056  0.0118 </r>
        <r>  0.0030  0.0037  0.0201 </r>
        <r>  0.0064  0.0176  0.0206 </r>
        <r>  0.0171  0.0085  0.0079 </r>
        <r>  0.0159  0.0071  0.0241 </r>
        <r>  0.0153  0.0075  0.0162 </r>
        <r>  0.0162  0.0161  0.0191 </r>
        <r>  0.0140  0.0079  0.0203 </r>
        <r>  0.0128  0.0140  0.0143 </r>
        <r>  0.0087  0.0100  0.0219 </r>
        <r>  0.0010  0.0257  0.0008 </r>
        <r>  0.0008  0.0115  0.0006 </r>
       </set>
       <set comment="band 102">
        <r>  0.0140  0.0056  0.0079 </r>
        <r>  0.0102  0.0046  0.0107 </r>
        <r>  0.0174  0.0111  0.0051 </r>
        <r>  0.0088  0.0136  0.0120 </r>
        <r>  0.0026  0.0052  0.0141 </r>
        <r>  0.0002  0.0055  0.0178 </r>
        <r>  0.0019  0.0183  0.0086 </r>
        <r>  0.0005  0.0163  0.0083 </r>
        <r>  0.0228  0.0069  0.0155 </r>
        <r>  0.0160  0.0078  0.0125 </r>
        <r>  0.0184  0.0144  0.0131 </r>
        <r>  0.0172  0.0147  0.0095 </r>
        <r>  0.0262  0.0077  0.0138 </r>
        <r>  0.0232  0.0147  0.0159 </r>
        <r>  0.0215  0.0108  0.0092 </r>
        <r>  0.0262  0.0198  0.0133 </r>
        <r>  0.0002  0.0050  0.0004 </r>
        <r>  0.0003  0.0002  0.0002 </r>
       </set>
       <set comment="band 103">
        <r>  0.0309  0.0045  0.0090 </r>
        <r>  0.0218  0.0083  0.0138 </r>
        <r>  0.0198  0.0050  0.0164 </r>
        <r>  0.0277  0.0068  0.0083 </r>
        <r>  0.0367  0.0093  0.0083 </r>
        <r>  0.0506  0.0110  0.0111 </r>
        <r>  0.0572  0.0077  0.0122 </r>
        <r>  0.0458  0.0101  0.0074 </r>
        <r>  0.0182  0.0173  0.0122 </r>
        <r>  0.0188  0.0151  0.0186 </r>
        <r>  0.0141  0.0107  0.0194 </r>
        <r>  0.0106  0.0147  0.0133 </r>
        <r>  0.0016  0.0057  0.0083 </r>
        <r>  0.0003  0.0087  0.0099 </r>
        <r>  0.0025  0.0065  0.0072 </r>
        <r>  0.0001  0.0082  0.0093 </r>
        <r>  0.0018  0.0071  0.0000 </r>
        <r>  0.0001  0.0006  0.0002 </r>
       </set>
       <set comment="band 104">
        <r>  0.0125  0.0067  0.0176 </r>
        <r>  0.0205  0.0230  0.0104 </r>
        <r>  0.0204  0.0069  0.0129 </r>
        <r>  0.0177  0.0119  0.0101 </r>
        <r>  0.0350  0.0148  0.0163 </r>
        <r>  0.0230  0.0180  0.0074 </r>
        <r>  0.0079  0.0089  0.0136 </r>
        <r>  0.0238  0.0114  0.0162 </r>
        <r>  0.0038  0.0081  0.0176 </r>
        <r>  0.0120  0.0090  0.0030 </r>
        <r>  0.0220  0.0037  0.0118 </r>
        <r>  0.0086  0.0169  0.0149 </r>
        <r>  0.0037  0.0080  0.0244 </r>
        <r>  0.0018  0.0252  0.0036 </r>
        <r>  0.0029  0.0061  0.0140 </r>
        <r>  0.0006  0.0043  0.0083 </r>
        <r>  0.0050  0.0234  0.0001 </r>
        <r>  0.0000  0.0042  0.0006 </r>
       </set>
      </set>
     </set>
    </set>
   </array>
  </projected>
 </calculation>
 <structure name="finalpos" >
  <crystal>
   <varray name="basis" >
    <v>       5.64384424       0.00000000       0.00000000 </v>
    <v>       2.82192212       4.88771248       0.00000000 </v>
    <v>       0.00000000       0.00000000      26.91226928 </v>
   </varray>
   <i name="volume">    742.38807929 </i>
   <varray name="rec_basis" >
    <v>       0.17718420      -0.10229734       0.00000000 </v>
    <v>       0.00000000       0.20459469       0.00000000 </v>
    <v>       0.00000000       0.00000000       0.03715777 </v>
   </varray>
  </crystal>
  <varray name="positions" >
   <v>       0.00000000       0.00000000       0.37157773 </v>
   <v>       0.50000000       0.00000000       0.37157773 </v>
   <v>       0.00000000       0.50000000       0.37157773 </v>
   <v>       0.50000000       0.50000000       0.37157773 </v>
   <v>       0.16666667       0.16666667       0.45719258 </v>
   <v>       0.66666667       0.16666667       0.45719258 </v>
   <v>       0.16666667       0.66666667       0.45719258 </v>
   <v>       0.66666667       0.66666667       0.45719258 </v>
   <v>       0.83387762       0.33306014       0.54220317 </v>
   <v>       0.33169125       0.33345140       0.54216948 </v>
   <v>       0.84176685       0.82911591       0.54482982 </v>
   <v>       0.33169178       0.83485554       0.54216960 </v>
   <v>       0.99733416       0.00214325       0.63434614 </v>
   <v>       0.50796191       0.99601873       0.62676952 </v>
   <v>       0.99733214       0.50052396       0.63434551 </v>
   <v>       0.49023277       0.50488239       0.62677967 </v>
   <v>       0.00437955       0.24781286       0.68847090 </v>
   <v>       0.00328756       0.24836371       0.73259127 </v>
  </varray>
  <varray name="selective"  type="logical" >
   <v type="logical" >  F  F  F </v>
   <v type="logical" >  F  F  F </v>
   <v type="logical" >  F  F  F </v>
   <v type="logical" >  F  F  F </v>
   <v type="logical" >  F  F  F </v>
   <v type="logical" >  F  F  F </v>
   <v type="logical" >  F  F  F </v>
   <v type="logical" >  F  F  F </v>
   <v type="logical" >  T  T  T </v>
   <v type="logical" >  T  T  T </v>
   <v type="logical" >  T  T  T </v>
   <v type="logical" >  T  T  T </v>
   <v type="logical" >  T  T  T </v>
   <v type="logical" >  T  T  T </v>
   <v type="logical" >  T  T  T </v>
   <v type="logical" >  T  T  T </v>
   <v type="logical" >  T  T  T </v>
   <v type="logical" >  T  T  T </v>
  </varray>
  <nose>
   <v>      -3.00000000       0.00000000       0.00010000       0.00010000 </v>
  </nose>
 </structure>
</modeling>
