unknown system                          
           1
     5.643844    0.000000    0.000000
     2.821922    4.887712    0.000000
     0.000000    0.000000   26.912269
   Pt   C    O 
  16   1   1
Direct configuration=     1
   0.00000000  0.00000000  0.37157773
   0.50000000  0.00000000  0.37157773
   0.00000000  0.50000000  0.37157773
   0.50000000  0.50000000  0.37157773
   0.16666667  0.16666667  0.45719258
   0.66666667  0.16666667  0.45719258
   0.16666667  0.66666667  0.45719258
   0.66666667  0.66666667  0.45719258
   0.83387762  0.33306014  0.54220317
   0.33169125  0.33345140  0.54216948
   0.84176685  0.82911591  0.54482982
   0.33169178  0.83485554  0.54216960
   0.99733416  0.00214325  0.63434614
   0.50796191  0.99601873  0.62676952
   0.99733214  0.50052396  0.63434551
   0.49023277  0.50488239  0.62677967
   0.00437955  0.24781286  0.68847090
   0.00328756  0.24836371  0.73259127
