  16  16   1   0
  0.3859214E+02  0.5199964E-09  0.5199964E-09  0.2636863E-08  0.5000000E-15
  1.000000000000000E-004
  CAR 
 unknown system                          
      8.22626900    -11.32298007  301     -0.71455962      1.00000000
    -11.323  0.0000E+00  0.0000E+00
    -11.258  0.0000E+00  0.0000E+00
    -11.193  0.0000E+00  0.0000E+00
    -11.127  0.0000E+00  0.0000E+00
    -11.062  0.0000E+00  0.0000E+00
    -10.997  0.0000E+00  0.0000E+00
    -10.932 -0.2168E-27 -0.1413E-28
    -10.867 -0.3517E-25 -0.2306E-26
    -10.802 -0.4626E-23 -0.3038E-24
    -10.737 -0.4911E-21 -0.3230E-22
    -10.671 -0.4204E-19 -0.2772E-20
    -10.606 -0.2903E-17 -0.1919E-18
    -10.541 -0.1615E-15 -0.1072E-16
    -10.476 -0.7039E-14 -0.4694E-15
    -10.411 -0.2528E-12 -0.1694E-13
    -10.346 -0.7312E-11 -0.4934E-12
    -10.280 -0.1699E-09 -0.1156E-10
    -10.215 -0.3166E-08 -0.2179E-09
    -10.150 -0.4725E-07 -0.3297E-08
    -10.085 -0.5632E-06 -0.4000E-07
    -10.020 -0.5347E-05 -0.3884E-06
     -9.955 -0.4023E-04 -0.3010E-05
     -9.889 -0.2383E-03 -0.1854E-04
     -9.824 -0.1099E-02 -0.9017E-04
     -9.759 -0.3876E-02 -0.3427E-03
     -9.694 -0.1006E-01 -0.9984E-03
     -9.629 -0.1752E-01 -0.2140E-02
     -9.564 -0.1336E-01 -0.3010E-02
     -9.498  0.2483E-01 -0.1392E-02
     -9.433  0.1038E+00  0.5373E-02
     -9.368  0.1859E+00  0.1749E-01
     -9.303  0.2251E+00  0.3215E-01
     -9.238  0.2784E+00  0.5029E-01
     -9.173  0.5335E+00  0.8506E-01
     -9.107  0.1097E+01  0.1566E+00
     -9.042  0.1735E+01  0.2696E+00
     -8.977  0.1979E+01  0.3986E+00
     -8.912  0.1599E+01  0.5028E+00
     -8.847  0.8511E+00  0.5582E+00
     -8.782  0.1837E+00  0.5702E+00
     -8.716 -0.1597E+00  0.5598E+00
     -8.651 -0.1594E+00  0.5494E+00
     -8.586  0.1793E+00  0.5611E+00
     -8.521  0.8226E+00  0.6147E+00
     -8.456  0.1523E+01  0.7139E+00
     -8.391  0.1886E+01  0.8368E+00
     -8.325  0.1801E+01  0.9542E+00
     -8.260  0.1640E+01  0.1061E+01
     -8.195  0.1785E+01  0.1177E+01
     -8.130  0.2076E+01  0.1313E+01
     -8.065  0.2036E+01  0.1445E+01
     -8.000  0.1586E+01  0.1549E+01
     -7.934  0.1217E+01  0.1628E+01
     -7.869  0.1339E+01  0.1715E+01
     -7.804  0.1733E+01  0.1828E+01
     -7.739  0.1800E+01  0.1945E+01
     -7.674  0.1261E+01  0.2028E+01
     -7.609  0.4327E+00  0.2056E+01
     -7.543 -0.6439E-01  0.2052E+01
     -7.478  0.3195E+00  0.2072E+01
     -7.413  0.1779E+01  0.2188E+01
     -7.348  0.3829E+01  0.2438E+01
     -7.283  0.5329E+01  0.2785E+01
     -7.218  0.5317E+01  0.3132E+01
     -7.152  0.3982E+01  0.3391E+01
     -7.087  0.2536E+01  0.3556E+01
     -7.022  0.2018E+01  0.3688E+01
     -6.957  0.2426E+01  0.3846E+01
     -6.892  0.2986E+01  0.4040E+01
     -6.827  0.2988E+01  0.4235E+01
     -6.761  0.2289E+01  0.4384E+01
     -6.696  0.1251E+01  0.4466E+01
     -6.631  0.3562E+00  0.4489E+01
     -6.566 -0.1408E+00  0.4480E+01
     -6.501 -0.1938E+00  0.4467E+01
     -6.436  0.3323E+00  0.4489E+01
     -6.371  0.1722E+01  0.4601E+01
     -6.305  0.3932E+01  0.4857E+01
     -6.240  0.6200E+01  0.5261E+01
     -6.175  0.7556E+01  0.5754E+01
     -6.110  0.7752E+01  0.6259E+01
     -6.045  0.7292E+01  0.6734E+01
     -5.980  0.6565E+01  0.7162E+01
     -5.914  0.5551E+01  0.7523E+01
     -5.849  0.4416E+01  0.7811E+01
     -5.784  0.3699E+01  0.8052E+01
     -5.719  0.3636E+01  0.8289E+01
     -5.654  0.3886E+01  0.8542E+01
     -5.589  0.4315E+01  0.8823E+01
     -5.523  0.5536E+01  0.9184E+01
     -5.458  0.8100E+01  0.9712E+01
     -5.393  0.1133E+02  0.1045E+02
     -5.328  0.1370E+02  0.1134E+02
     -5.263  0.1448E+02  0.1229E+02
     -5.198  0.1451E+02  0.1323E+02
     -5.132  0.1506E+02  0.1421E+02
     -5.067  0.1650E+02  0.1529E+02
     -5.002  0.1852E+02  0.1650E+02
     -4.937  0.2089E+02  0.1786E+02
     -4.872  0.2341E+02  0.1938E+02
     -4.807  0.2584E+02  0.2107E+02
     -4.741  0.2835E+02  0.2291E+02
     -4.676  0.3116E+02  0.2494E+02
     -4.611  0.3348E+02  0.2713E+02
     -4.546  0.3392E+02  0.2934E+02
     -4.481  0.3254E+02  0.3146E+02
     -4.416  0.3139E+02  0.3350E+02
     -4.350  0.3209E+02  0.3559E+02
     -4.285  0.3387E+02  0.3780E+02
     -4.220  0.3498E+02  0.4008E+02
     -4.155  0.3496E+02  0.4236E+02
     -4.090  0.3462E+02  0.4461E+02
     -4.025  0.3474E+02  0.4688E+02
     -3.959  0.3583E+02  0.4921E+02
     -3.894  0.3842E+02  0.5172E+02
     -3.829  0.4282E+02  0.5451E+02
     -3.764  0.4840E+02  0.5766E+02
     -3.699  0.5410E+02  0.6119E+02
     -3.634  0.5978E+02  0.6508E+02
     -3.568  0.6628E+02  0.6940E+02
     -3.503  0.7378E+02  0.7421E+02
     -3.438  0.8036E+02  0.7945E+02
     -3.373  0.8282E+02  0.8484E+02
     -3.308  0.7911E+02  0.9000E+02
     -3.243  0.7050E+02  0.9459E+02
     -3.177  0.6158E+02  0.9860E+02
     -3.112  0.5663E+02  0.1023E+03
     -3.047  0.5549E+02  0.1059E+03
     -2.982  0.5448E+02  0.1095E+03
     -2.917  0.5231E+02  0.1129E+03
     -2.852  0.5286E+02  0.1163E+03
     -2.786  0.5978E+02  0.1202E+03
     -2.721  0.7030E+02  0.1248E+03
     -2.656  0.7737E+02  0.1298E+03
     -2.591  0.7783E+02  0.1349E+03
     -2.526  0.7589E+02  0.1398E+03
     -2.461  0.7740E+02  0.1449E+03
     -2.395  0.8220E+02  0.1502E+03
     -2.330  0.8362E+02  0.1557E+03
     -2.265  0.7542E+02  0.1606E+03
     -2.200  0.5804E+02  0.1644E+03
     -2.135  0.3784E+02  0.1669E+03
     -2.070  0.2149E+02  0.1683E+03
     -2.005  0.1172E+02  0.1690E+03
     -1.939  0.7514E+01  0.1695E+03
     -1.874  0.6548E+01  0.1699E+03
     -1.809  0.6883E+01  0.1704E+03
     -1.744  0.7398E+01  0.1709E+03
     -1.679  0.7535E+01  0.1714E+03
     -1.614  0.7031E+01  0.1718E+03
     -1.548  0.6004E+01  0.1722E+03
     -1.483  0.4966E+01  0.1725E+03
     -1.418  0.4230E+01  0.1728E+03
     -1.353  0.3474E+01  0.1730E+03
     -1.288  0.2266E+01  0.1732E+03
     -1.223  0.7994E+00  0.1732E+03
     -1.157 -0.1013E+00  0.1732E+03
     -1.092  0.4914E+00  0.1733E+03
     -1.027  0.2945E+01  0.1735E+03
     -0.962  0.6408E+01  0.1739E+03
     -0.897  0.9002E+01  0.1745E+03
     -0.832  0.9436E+01  0.1751E+03
     -0.766  0.8337E+01  0.1756E+03
     -0.701  0.7325E+01  0.1761E+03
     -0.636  0.7009E+01  0.1766E+03
     -0.571  0.6762E+01  0.1770E+03
     -0.506  0.6285E+01  0.1774E+03
     -0.441  0.6377E+01  0.1778E+03
     -0.375  0.7760E+01  0.1783E+03
     -0.310  0.9715E+01  0.1790E+03
     -0.245  0.1051E+02  0.1796E+03
     -0.180  0.9170E+01  0.1802E+03
     -0.115  0.6329E+01  0.1807E+03
     -0.050  0.3434E+01  0.1809E+03
      0.016  0.1462E+01  0.1810E+03
      0.081  0.6387E+00  0.1810E+03
      0.146  0.8951E+00  0.1811E+03
      0.211  0.2009E+01  0.1812E+03
      0.276  0.3315E+01  0.1814E+03
      0.341  0.3870E+01  0.1817E+03
      0.407  0.3257E+01  0.1819E+03
      0.472  0.1992E+01  0.1820E+03
      0.537  0.1043E+01  0.1821E+03
      0.602  0.1232E+01  0.1822E+03
      0.667  0.3009E+01  0.1824E+03
      0.732  0.6068E+01  0.1828E+03
      0.798  0.9040E+01  0.1833E+03
      0.863  0.1031E+02  0.1840E+03
      0.928  0.9593E+01  0.1846E+03
      0.993  0.8160E+01  0.1852E+03
      1.058  0.7333E+01  0.1856E+03
      1.123  0.7158E+01  0.1861E+03
      1.189  0.6784E+01  0.1866E+03
      1.254  0.5557E+01  0.1869E+03
      1.319  0.3591E+01  0.1872E+03
      1.384  0.1647E+01  0.1873E+03
      1.449  0.6199E+00  0.1873E+03
      1.514  0.9836E+00  0.1874E+03
      1.580  0.2593E+01  0.1875E+03
      1.645  0.4869E+01  0.1878E+03
      1.710  0.7101E+01  0.1883E+03
      1.775  0.8721E+01  0.1889E+03
      1.840  0.9411E+01  0.1895E+03
      1.905  0.8985E+01  0.1901E+03
      1.971  0.7377E+01  0.1906E+03
      2.036  0.4948E+01  0.1909E+03
      2.101  0.2683E+01  0.1911E+03
      2.166  0.1752E+01  0.1912E+03
      2.231  0.2612E+01  0.1913E+03
      2.296  0.4438E+01  0.1916E+03
      2.361  0.5596E+01  0.1920E+03
      2.427  0.5022E+01  0.1923E+03
      2.492  0.3114E+01  0.1925E+03
      2.557  0.1140E+01  0.1926E+03
      2.622 -0.3458E-01  0.1926E+03
      2.687 -0.4164E+00  0.1926E+03
      2.752 -0.3931E+00  0.1925E+03
      2.818 -0.1661E+00  0.1925E+03
      2.883  0.3263E+00  0.1926E+03
      2.948  0.1186E+01  0.1926E+03
      3.013  0.2455E+01  0.1928E+03
      3.078  0.4167E+01  0.1931E+03
      3.143  0.6175E+01  0.1935E+03
      3.209  0.7810E+01  0.1940E+03
      3.274  0.8141E+01  0.1945E+03
      3.339  0.6925E+01  0.1950E+03
      3.404  0.5064E+01  0.1953E+03
      3.469  0.3830E+01  0.1955E+03
      3.534  0.3747E+01  0.1958E+03
      3.600  0.4375E+01  0.1961E+03
      3.665  0.5111E+01  0.1964E+03
      3.730  0.5918E+01  0.1968E+03
      3.795  0.7043E+01  0.1972E+03
      3.860  0.8298E+01  0.1978E+03
      3.925  0.9195E+01  0.1984E+03
      3.991  0.9698E+01  0.1990E+03
      4.056  0.1013E+02  0.1997E+03
      4.121  0.1033E+02  0.2003E+03
      4.186  0.9652E+01  0.2010E+03
      4.251  0.8053E+01  0.2015E+03
      4.316  0.6522E+01  0.2019E+03
      4.382  0.6146E+01  0.2023E+03
      4.447  0.6990E+01  0.2028E+03
      4.512  0.8259E+01  0.2033E+03
      4.577  0.9290E+01  0.2039E+03
      4.642  0.9947E+01  0.2046E+03
      4.707  0.1024E+02  0.2052E+03
      4.773  0.1014E+02  0.2059E+03
      4.838  0.9704E+01  0.2065E+03
      4.903  0.9076E+01  0.2071E+03
      4.968  0.8297E+01  0.2077E+03
      5.033  0.7377E+01  0.2081E+03
      5.098  0.6571E+01  0.2086E+03
      5.164  0.6497E+01  0.2090E+03
      5.229  0.7643E+01  0.2095E+03
      5.294  0.9564E+01  0.2101E+03
      5.359  0.1088E+02  0.2108E+03
      5.424  0.1056E+02  0.2115E+03
      5.489  0.9012E+01  0.2121E+03
      5.555  0.7485E+01  0.2126E+03
      5.620  0.6621E+01  0.2130E+03
      5.685  0.6146E+01  0.2134E+03
      5.750  0.5751E+01  0.2138E+03
      5.815  0.5639E+01  0.2142E+03
      5.880  0.5915E+01  0.2146E+03
      5.946  0.5968E+01  0.2149E+03
      6.011  0.5091E+01  0.2153E+03
      6.076  0.3542E+01  0.2155E+03
      6.141  0.2294E+01  0.2157E+03
      6.206  0.1817E+01  0.2158E+03
      6.271  0.1666E+01  0.2159E+03
      6.337  0.1284E+01  0.2160E+03
      6.402  0.6670E+00  0.2160E+03
      6.467  0.1508E+00  0.2160E+03
      6.532 -0.8099E-01  0.2160E+03
      6.597 -0.1029E+00  0.2160E+03
      6.662 -0.5806E-01  0.2160E+03
      6.727 -0.2204E-01  0.2160E+03
      6.793 -0.6174E-02  0.2160E+03
      6.858 -0.1323E-02  0.2160E+03
      6.923 -0.2210E-03  0.2160E+03
      6.988 -0.2908E-04  0.2160E+03
      7.053 -0.3034E-05  0.2160E+03
      7.118 -0.2521E-06  0.2160E+03
      7.184 -0.1674E-07  0.2160E+03
      7.249 -0.8903E-09  0.2160E+03
      7.314 -0.3798E-10  0.2160E+03
      7.379 -0.1302E-11  0.2160E+03
      7.444 -0.3544E-13  0.2160E+03
      7.509 -0.1090E-14  0.2160E+03
      7.575  0.0000E+00  0.2160E+03
      7.640  0.0000E+00  0.2160E+03
      7.705  0.0000E+00  0.2160E+03
      7.770  0.0000E+00  0.2160E+03
      7.835  0.0000E+00  0.2160E+03
      7.900  0.0000E+00  0.2160E+03
      7.966  0.0000E+00  0.2160E+03
      8.031  0.0000E+00  0.2160E+03
      8.096  0.0000E+00  0.2160E+03
      8.161  0.0000E+00  0.2160E+03
      8.226  0.0000E+00  0.2160E+03
      8.22626900    -11.32298007  301     -0.71455962      1.00000000
    -11.323  0.0000E+00  0.0000E+00  0.0000E+00
    -11.258  0.0000E+00  0.0000E+00  0.0000E+00
    -11.193  0.0000E+00  0.0000E+00  0.0000E+00
    -11.127  0.0000E+00  0.0000E+00  0.0000E+00
    -11.062  0.0000E+00  0.0000E+00  0.0000E+00
    -10.997  0.0000E+00  0.0000E+00  0.0000E+00
    -10.932 -0.5161E-29 -0.7065E-30 -0.1778E-32
    -10.867 -0.8371E-27 -0.1146E-27 -0.2884E-30
    -10.802 -0.1101E-24 -0.1508E-25 -0.3794E-28
    -10.737 -0.1169E-22 -0.1600E-23 -0.4027E-26
    -10.671 -0.1001E-20 -0.1370E-21 -0.3448E-24
    -10.606 -0.6910E-19 -0.9459E-20 -0.2381E-22
    -10.541 -0.3845E-17 -0.5264E-18 -0.1325E-20
    -10.476 -0.1676E-15 -0.2294E-16 -0.5773E-19
    -10.411 -0.6018E-14 -0.8238E-15 -0.2073E-17
    -10.346 -0.1741E-12 -0.2383E-13 -0.5997E-16
    -10.280 -0.4044E-11 -0.5536E-12 -0.1393E-14
    -10.215 -0.7536E-10 -0.1032E-10 -0.2597E-13
    -10.150 -0.1125E-08 -0.1540E-09 -0.3875E-12
    -10.085 -0.1341E-07 -0.1835E-08 -0.4620E-11
    -10.020 -0.1273E-06 -0.1742E-07 -0.4387E-10
     -9.955 -0.9576E-06 -0.1311E-06 -0.3304E-09
     -9.889 -0.5673E-05 -0.7766E-06 -0.1963E-08
     -9.824 -0.2617E-04 -0.3583E-05 -0.9134E-08
     -9.759 -0.9225E-04 -0.1264E-04 -0.3310E-07
     -9.694 -0.2395E-03 -0.3284E-04 -0.9423E-07
     -9.629 -0.4165E-03 -0.5741E-04 -0.2259E-06
     -9.564 -0.3157E-03 -0.4536E-04 -0.5636E-06
     -9.498  0.6008E-03  0.7308E-04 -0.1738E-05
     -9.433  0.2503E-02  0.3130E-03 -0.5438E-05
     -9.368  0.4499E-02  0.5466E-03 -0.1315E-04
     -9.303  0.5464E-02  0.6481E-03 -0.1933E-04
     -9.238  0.6645E-02  0.8917E-03 -0.1550E-05
     -9.173  0.1235E-01  0.2019E-02  0.7397E-04
     -9.107  0.2509E-01  0.4402E-02  0.2141E-03
     -9.042  0.3957E-01  0.7045E-02  0.3594E-03
     -8.977  0.4511E-01  0.8047E-02  0.4127E-03
     -8.912  0.3646E-01  0.6492E-02  0.3294E-03
     -8.847  0.1945E-01  0.3423E-02  0.1619E-03
     -8.782  0.4318E-02  0.6543E-03 -0.4562E-06
     -8.716 -0.3431E-02 -0.7985E-03 -0.9612E-04
     -8.651 -0.3532E-02 -0.7264E-03 -0.6748E-04
     -8.586  0.3562E-02  0.1066E-02  0.1729E-03
     -8.521  0.1692E-01  0.4522E-02  0.6477E-03
     -8.456  0.3127E-01  0.8316E-02  0.1170E-02
     -8.391  0.3849E-01  0.1031E-01  0.1449E-02
     -8.325  0.3674E-01  0.9936E-02  0.1467E-02
     -8.260  0.3464E-01  0.9248E-02  0.1601E-02
     -8.195  0.4045E-01  0.1024E-01  0.2120E-02
     -8.130  0.4967E-01  0.1189E-01  0.2684E-02
     -8.065  0.5121E-01  0.1152E-01  0.2698E-02
     -8.000  0.4665E-01  0.8878E-02  0.2172E-02
     -7.934  0.5361E-01  0.6910E-02  0.1850E-02
     -7.869  0.8245E-01  0.7929E-02  0.2280E-02
     -7.804  0.1155E+00  0.1045E-01  0.3024E-02
     -7.739  0.1212E+00  0.1083E-01  0.3085E-02
     -7.674  0.8852E-01  0.7386E-02  0.2022E-02
     -7.609  0.3847E-01  0.2099E-02  0.4508E-03
     -7.543  0.1947E-02 -0.9887E-03 -0.3130E-03
     -7.478 -0.2042E-02  0.2198E-02  0.1137E-02
     -7.413  0.3044E-01  0.1369E-01  0.5414E-02
     -7.348  0.8847E-01  0.3042E-01  0.1115E-01
     -7.283  0.1440E+00  0.4362E-01  0.1507E-01
     -7.218  0.1655E+00  0.4515E-01  0.1458E-01
     -7.152  0.1474E+00  0.3600E-01  0.1056E-01
     -7.087  0.1181E+00  0.2599E-01  0.6744E-02
     -7.022  0.1076E+00  0.2356E-01  0.6254E-02
     -6.957  0.1137E+00  0.2768E-01  0.9003E-02
     -6.892  0.1113E+00  0.3095E-01  0.1230E-01
     -6.827  0.8634E-01  0.2800E-01  0.1321E-01
     -6.761  0.4894E-01  0.1941E-01  0.1068E-01
     -6.696  0.1696E-01  0.9246E-02  0.6157E-02
     -6.631 -0.9277E-03  0.9676E-03  0.2223E-02
     -6.566 -0.6273E-02 -0.4068E-02  0.4245E-03
     -6.501 -0.3372E-03 -0.4654E-02  0.1095E-02
     -6.436  0.2658E-01  0.2735E-02  0.5820E-02
     -6.371  0.9024E-01  0.2171E-01  0.1837E-01
     -6.305  0.1858E+00  0.4890E-01  0.3998E-01
     -6.240  0.2695E+00  0.7171E-01  0.6389E-01
     -6.175  0.2885E+00  0.7862E-01  0.7916E-01
     -6.110  0.2362E+00  0.7136E-01  0.8161E-01
     -6.045  0.1599E+00  0.6163E-01  0.7650E-01
     -5.980  0.1087E+00  0.5640E-01  0.6953E-01
     -5.914  0.9293E-01  0.5225E-01  0.6159E-01
     -5.849  0.9635E-01  0.4419E-01  0.5412E-01
     -5.784  0.1054E+00  0.3359E-01  0.5168E-01
     -5.719  0.1147E+00  0.2515E-01  0.5531E-01
     -5.654  0.1220E+00  0.2181E-01  0.6160E-01
     -5.589  0.1328E+00  0.2631E-01  0.7398E-01
     -5.523  0.1567E+00  0.4303E-01  0.1069E+00
     -5.458  0.1907E+00  0.7120E-01  0.1675E+00
     -5.393  0.2106E+00  0.9798E-01  0.2349E+00
     -5.328  0.1928E+00  0.1064E+00  0.2732E+00
     -5.263  0.1447E+00  0.9353E-01  0.2698E+00
     -5.198  0.1075E+00  0.7573E-01  0.2519E+00
     -5.132  0.1183E+00  0.7109E-01  0.2603E+00
     -5.067  0.1734E+00  0.8212E-01  0.3166E+00
     -5.002  0.2328E+00  0.9794E-01  0.4215E+00
     -4.937  0.2600E+00  0.1081E+00  0.5628E+00
     -4.872  0.2503E+00  0.1095E+00  0.7140E+00
     -4.807  0.2209E+00  0.1047E+00  0.8418E+00
     -4.741  0.1888E+00  0.9818E-01  0.9370E+00
     -4.676  0.1612E+00  0.9306E-01  0.1018E+01
     -4.611  0.1375E+00  0.8917E-01  0.1096E+01
     -4.546  0.1146E+00  0.8474E-01  0.1165E+01
     -4.481  0.9204E-01  0.8059E-01  0.1254E+01
     -4.416  0.7348E-01  0.8012E-01  0.1418E+01
     -4.350  0.6039E-01  0.8456E-01  0.1647E+01
     -4.285  0.4981E-01  0.9057E-01  0.1848E+01
     -4.220  0.3946E-01  0.9359E-01  0.1936E+01
     -4.155  0.3123E-01  0.9161E-01  0.1916E+01
     -4.090  0.2714E-01  0.8507E-01  0.1853E+01
     -4.025  0.2523E-01  0.7549E-01  0.1815E+01
     -3.959  0.2280E-01  0.6618E-01  0.1859E+01
     -3.894  0.2235E-01  0.6259E-01  0.2020E+01
     -3.829  0.3046E-01  0.6917E-01  0.2300E+01
     -3.764  0.4918E-01  0.8429E-01  0.2661E+01
     -3.699  0.7006E-01  0.9978E-01  0.3043E+01
     -3.634  0.7989E-01  0.1073E+00  0.3419E+01
     -3.568  0.7304E-01  0.1065E+00  0.3832E+01
     -3.503  0.5700E-01  0.1070E+00  0.4347E+01
     -3.438  0.4615E-01  0.1207E+00  0.4934E+01
     -3.373  0.5067E-01  0.1513E+00  0.5392E+01
     -3.308  0.6954E-01  0.1904E+00  0.5464E+01
     -3.243  0.9112E-01  0.2218E+00  0.5090E+01
     -3.177  0.1007E+00  0.2298E+00  0.4539E+01
     -3.112  0.9107E-01  0.2074E+00  0.4160E+01
     -3.047  0.6728E-01  0.1609E+00  0.3999E+01
     -2.982  0.4161E-01  0.1076E+00  0.3812E+01
     -2.917  0.2404E-01  0.6916E-01  0.3523E+01
     -2.852  0.1820E-01  0.5952E-01  0.3457E+01
     -2.786  0.2330E-01  0.7635E-01  0.3951E+01
     -2.721  0.3604E-01  0.1016E+00  0.4853E+01
     -2.656  0.5075E-01  0.1144E+00  0.5606E+01
     -2.591  0.6061E-01  0.1064E+00  0.5802E+01
     -2.526  0.6095E-01  0.8502E-01  0.5535E+01
     -2.461  0.5196E-01  0.6318E-01  0.5168E+01
     -2.395  0.3841E-01  0.4901E-01  0.4889E+01
     -2.330  0.2731E-01  0.4420E-01  0.4554E+01
     -2.265  0.2457E-01  0.4734E-01  0.3927E+01
     -2.200  0.3106E-01  0.5431E-01  0.2982E+01
     -2.135  0.4110E-01  0.5837E-01  0.1944E+01
     -2.070  0.4752E-01  0.5617E-01  0.1093E+01
     -2.005  0.4950E-01  0.5321E-01  0.5738E+00
     -1.939  0.5321E-01  0.5847E-01  0.3620E+00
     -1.874  0.6365E-01  0.7325E-01  0.3373E+00
     -1.809  0.7896E-01  0.8960E-01  0.3656E+00
     -1.744  0.9336E-01  0.9943E-01  0.3591E+00
     -1.679  0.1013E+00  0.9994E-01  0.3012E+00
     -1.614  0.9885E-01  0.9193E-01  0.2219E+00
     -1.548  0.8671E-01  0.7991E-01  0.1552E+00
     -1.483  0.7134E-01  0.7156E-01  0.1176E+00
     -1.418  0.5768E-01  0.6892E-01  0.1036E+00
     -1.353  0.4387E-01  0.6329E-01  0.9167E-01
     -1.288  0.2708E-01  0.4583E-01  0.6446E-01
     -1.223  0.1027E-01  0.2040E-01  0.2641E-01
     -1.157 -0.2394E-03  0.2034E-02  0.5874E-03
     -1.092 -0.5712E-03  0.5855E-02  0.1175E-01
     -1.027  0.8448E-02  0.3680E-01  0.6877E-01
     -0.962  0.2162E-01  0.8298E-01  0.1505E+00
     -0.897  0.3283E-01  0.1206E+00  0.2124E+00
     -0.832  0.4257E-01  0.1348E+00  0.2236E+00
     -0.766  0.5979E-01  0.1349E+00  0.1970E+00
     -0.701  0.8931E-01  0.1388E+00  0.1679E+00
     -0.636  0.1184E+00  0.1470E+00  0.1523E+00
     -0.571  0.1266E+00  0.1461E+00  0.1436E+00
     -0.506  0.1121E+00  0.1397E+00  0.1429E+00
     -0.441  0.9791E-01  0.1571E+00  0.1671E+00
     -0.375  0.1049E+00  0.2191E+00  0.2184E+00
     -0.310  0.1245E+00  0.3010E+00  0.2624E+00
     -0.245  0.1287E+00  0.3448E+00  0.2546E+00
     -0.180  0.1026E+00  0.3142E+00  0.1878E+00
     -0.115  0.5840E-01  0.2276E+00  0.9889E-01
     -0.050  0.1948E-01  0.1334E+00  0.2999E-01
      0.016 -0.1458E-02  0.6600E-01 -0.3444E-02
      0.081 -0.5349E-02  0.3220E-01 -0.7182E-02
      0.146  0.2270E-02  0.2715E-01  0.1096E-01
      0.211  0.1621E-01  0.4423E-01  0.4408E-01
      0.276  0.2965E-01  0.6957E-01  0.7708E-01
      0.341  0.3458E-01  0.8377E-01  0.8917E-01
      0.407  0.2801E-01  0.7784E-01  0.7185E-01
      0.472  0.1537E-01  0.5992E-01  0.3870E-01
      0.537  0.5881E-02  0.4511E-01  0.1343E-01
      0.602  0.5997E-02  0.5001E-01  0.1297E-01
      0.667  0.1680E-01  0.9524E-01  0.4067E-01
      0.732  0.3375E-01  0.1891E+00  0.8523E-01
      0.798  0.4864E-01  0.2987E+00  0.1236E+00
      0.863  0.5632E-01  0.3605E+00  0.1365E+00
      0.928  0.6055E-01  0.3420E+00  0.1260E+00
      0.993  0.6844E-01  0.2778E+00  0.1124E+00
      1.058  0.7793E-01  0.2275E+00  0.1097E+00
      1.123  0.7707E-01  0.2104E+00  0.1118E+00
      1.189  0.5886E-01  0.2004E+00  0.1044E+00
      1.254  0.3109E-01  0.1674E+00  0.8153E-01
      1.319  0.8048E-02  0.1093E+00  0.4940E-01
      1.384 -0.2486E-02  0.4877E-01  0.2084E-01
      1.449 -0.1263E-02  0.1347E-01  0.7903E-02
      1.514  0.7969E-02  0.1922E-01  0.1628E-01
      1.580  0.2183E-01  0.6628E-01  0.4380E-01
      1.645  0.3713E-01  0.1425E+00  0.8244E-01
      1.710  0.5069E-01  0.2252E+00  0.1209E+00
      1.775  0.6001E-01  0.2870E+00  0.1474E+00
      1.840  0.6307E-01  0.3081E+00  0.1532E+00
      1.905  0.5786E-01  0.2838E+00  0.1358E+00
      1.971  0.4416E-01  0.2225E+00  0.9992E-01
      2.036  0.2656E-01  0.1435E+00  0.5791E-01
      2.101  0.1353E-01  0.7630E-01  0.2691E-01
      2.166  0.1160E-01  0.5101E-01  0.2075E-01
      2.231  0.1961E-01  0.7816E-01  0.4042E-01
      2.296  0.2878E-01  0.1326E+00  0.6986E-01
      2.361  0.2995E-01  0.1665E+00  0.8509E-01
      2.427  0.2158E-01  0.1489E+00  0.7344E-01
      2.492  0.9907E-02  0.9202E-01  0.4367E-01
      2.557  0.1624E-02  0.3354E-01  0.1497E-01
      2.622 -0.1518E-02 -0.1019E-02 -0.1118E-02
      2.687 -0.1615E-02 -0.1208E-01 -0.5807E-02
      2.752 -0.1031E-02 -0.1139E-01 -0.5167E-02
      2.818 -0.7940E-03 -0.5456E-02 -0.2379E-02
      2.883 -0.9252E-03  0.7386E-02  0.3198E-02
      2.948 -0.8977E-03  0.3174E-01  0.1333E-01
      3.013  0.5131E-03  0.7195E-01  0.2945E-01
      3.078  0.5301E-02  0.1289E+00  0.5206E-01
      3.143  0.1503E-01  0.1895E+00  0.7744E-01
      3.209  0.2831E-01  0.2227E+00  0.9482E-01
      3.274  0.3951E-01  0.2011E+00  0.9252E-01
      3.339  0.4236E-01  0.1328E+00  0.7008E-01
      3.404  0.3770E-01  0.5947E-01  0.4172E-01
      3.469  0.3653E-01  0.1864E-01  0.2597E-01
      3.534  0.4980E-01  0.1759E-01  0.3161E-01
      3.600  0.7366E-01  0.3904E-01  0.5171E-01
      3.665  0.9157E-01  0.6296E-01  0.7140E-01
      3.730  0.9433E-01  0.8175E-01  0.8225E-01
      3.795  0.8974E-01  0.9852E-01  0.8691E-01
      3.860  0.8811E-01  0.1151E+00  0.9010E-01
      3.925  0.8934E-01  0.1266E+00  0.9207E-01
      3.991  0.8992E-01  0.1297E+00  0.9258E-01
      4.056  0.8987E-01  0.1291E+00  0.9350E-01
      4.121  0.8581E-01  0.1323E+00  0.9375E-01
      4.186  0.6982E-01  0.1364E+00  0.8721E-01
      4.251  0.4407E-01  0.1277E+00  0.7058E-01
      4.316  0.2856E-01  0.1003E+00  0.5219E-01
      4.382  0.4487E-01  0.6824E-01  0.4783E-01
      4.447  0.9220E-01  0.5303E-01  0.6491E-01
      4.512  0.1451E+00  0.6186E-01  0.9378E-01
      4.577  0.1788E+00  0.8672E-01  0.1188E+00
      4.642  0.1923E+00  0.1171E+00  0.1336E+00
      4.707  0.1970E+00  0.1446E+00  0.1397E+00
      4.773  0.1926E+00  0.1600E+00  0.1363E+00
      4.838  0.1676E+00  0.1566E+00  0.1207E+00
      4.903  0.1217E+00  0.1396E+00  0.9852E-01
      4.968  0.7265E-01  0.1235E+00  0.8092E-01
      5.033  0.3954E-01  0.1157E+00  0.7214E-01
      5.098  0.2812E-01  0.1089E+00  0.6537E-01
      5.164  0.3308E-01  0.9569E-01  0.5436E-01
      5.229  0.4681E-01  0.8129E-01  0.4259E-01
      5.294  0.6200E-01  0.7521E-01  0.3755E-01
      5.359  0.7184E-01  0.7864E-01  0.4202E-01
      5.424  0.7486E-01  0.8872E-01  0.5523E-01
      5.489  0.7631E-01  0.1058E+00  0.7600E-01
      5.555  0.7903E-01  0.1263E+00  0.9879E-01
      5.620  0.7727E-01  0.1368E+00  0.1116E+00
      5.685  0.6600E-01  0.1268E+00  0.1055E+00
      5.750  0.5236E-01  0.1060E+00  0.8568E-01
      5.815  0.5001E-01  0.9666E-01  0.6724E-01
      5.880  0.6167E-01  0.1072E+00  0.5956E-01
      5.946  0.7295E-01  0.1194E+00  0.5707E-01
      6.011  0.6735E-01  0.1086E+00  0.4831E-01
      6.076  0.4442E-01  0.7259E-01  0.3089E-01
      6.141  0.1849E-01  0.3254E-01  0.1301E-01
      6.206  0.2242E-02  0.7650E-02  0.2388E-02
      6.271 -0.2935E-02 -0.5209E-03 -0.7858E-03
      6.337 -0.2518E-02 -0.8758E-03 -0.6479E-03
      6.402 -0.1173E-02 -0.2726E-03 -0.2196E-03
      6.467 -0.4282E-03 -0.3025E-03 -0.1528E-03
      6.532 -0.1640E-03 -0.4209E-03 -0.1752E-03
      6.597 -0.7321E-04 -0.3363E-03 -0.1350E-03
      6.662 -0.3133E-04 -0.1757E-03 -0.6980E-04
      6.727 -0.1097E-04 -0.6561E-04 -0.2593E-04
      6.793 -0.3003E-05 -0.1835E-04 -0.7222E-05
      6.858 -0.6403E-06 -0.3943E-05 -0.1547E-05
      6.923 -0.1071E-06 -0.6611E-06 -0.2586E-06
      6.988 -0.1413E-07 -0.8734E-07 -0.3406E-07
      7.053 -0.1479E-08 -0.9150E-08 -0.3559E-08
      7.118 -0.1234E-09 -0.7635E-09 -0.2962E-09
      7.184 -0.8222E-11 -0.5090E-10 -0.1970E-10
      7.249 -0.4389E-12 -0.2717E-11 -0.1049E-11
      7.314 -0.1880E-13 -0.1164E-12 -0.4483E-13
      7.379 -0.6470E-15 -0.4006E-14 -0.1540E-14
      7.444 -0.1759E-16 -0.1080E-15 -0.4195E-16
      7.509 -0.5770E-18 -0.4074E-17 -0.1287E-17
      7.575  0.0000E+00  0.0000E+00  0.0000E+00
      7.640  0.0000E+00  0.0000E+00  0.0000E+00
      7.705  0.0000E+00  0.0000E+00  0.0000E+00
      7.770  0.0000E+00  0.0000E+00  0.0000E+00
      7.835  0.0000E+00  0.0000E+00  0.0000E+00
      7.900  0.0000E+00  0.0000E+00  0.0000E+00
      7.966  0.0000E+00  0.0000E+00  0.0000E+00
      8.031  0.0000E+00  0.0000E+00  0.0000E+00
      8.096  0.0000E+00  0.0000E+00  0.0000E+00
      8.161  0.0000E+00  0.0000E+00  0.0000E+00
      8.226  0.0000E+00  0.0000E+00  0.0000E+00
      8.22626900    -11.32298007  301     -0.71455962      1.00000000
    -11.323  0.0000E+00  0.0000E+00  0.0000E+00
    -11.258  0.0000E+00  0.0000E+00  0.0000E+00
    -11.193  0.0000E+00  0.0000E+00  0.0000E+00
    -11.127  0.0000E+00  0.0000E+00  0.0000E+00
    -11.062  0.0000E+00  0.0000E+00  0.0000E+00
    -10.997  0.0000E+00  0.0000E+00  0.0000E+00
    -10.932 -0.5161E-29 -0.7065E-30 -0.1777E-32
    -10.867 -0.8371E-27 -0.1146E-27 -0.2882E-30
    -10.802 -0.1101E-24 -0.1508E-25 -0.3792E-28
    -10.737 -0.1169E-22 -0.1600E-23 -0.4025E-26
    -10.671 -0.1001E-20 -0.1370E-21 -0.3446E-24
    -10.606 -0.6910E-19 -0.9460E-20 -0.2379E-22
    -10.541 -0.3846E-17 -0.5265E-18 -0.1324E-20
    -10.476 -0.1676E-15 -0.2294E-16 -0.5769E-19
    -10.411 -0.6018E-14 -0.8239E-15 -0.2072E-17
    -10.346 -0.1741E-12 -0.2383E-13 -0.5993E-16
    -10.280 -0.4044E-11 -0.5536E-12 -0.1392E-14
    -10.215 -0.7537E-10 -0.1032E-10 -0.2595E-13
    -10.150 -0.1125E-08 -0.1540E-09 -0.3873E-12
    -10.085 -0.1341E-07 -0.1836E-08 -0.4617E-11
    -10.020 -0.1273E-06 -0.1742E-07 -0.4384E-10
     -9.955 -0.9577E-06 -0.1311E-06 -0.3302E-09
     -9.889 -0.5673E-05 -0.7767E-06 -0.1962E-08
     -9.824 -0.2617E-04 -0.3583E-05 -0.9128E-08
     -9.759 -0.9226E-04 -0.1264E-04 -0.3309E-07
     -9.694 -0.2395E-03 -0.3284E-04 -0.9418E-07
     -9.629 -0.4165E-03 -0.5741E-04 -0.2258E-06
     -9.564 -0.3157E-03 -0.4537E-04 -0.5636E-06
     -9.498  0.6008E-03  0.7309E-04 -0.1739E-05
     -9.433  0.2503E-02  0.3130E-03 -0.5440E-05
     -9.368  0.4499E-02  0.5467E-03 -0.1315E-04
     -9.303  0.5464E-02  0.6482E-03 -0.1934E-04
     -9.238  0.6646E-02  0.8917E-03 -0.1552E-05
     -9.173  0.1235E-01  0.2019E-02  0.7397E-04
     -9.107  0.2509E-01  0.4402E-02  0.2141E-03
     -9.042  0.3957E-01  0.7045E-02  0.3595E-03
     -8.977  0.4511E-01  0.8048E-02  0.4127E-03
     -8.912  0.3647E-01  0.6493E-02  0.3295E-03
     -8.847  0.1946E-01  0.3423E-02  0.1620E-03
     -8.782  0.4318E-02  0.6544E-03 -0.4584E-06
     -8.716 -0.3431E-02 -0.7986E-03 -0.9613E-04
     -8.651 -0.3532E-02 -0.7264E-03 -0.6749E-04
     -8.586  0.3562E-02  0.1066E-02  0.1730E-03
     -8.521  0.1692E-01  0.4522E-02  0.6478E-03
     -8.456  0.3127E-01  0.8317E-02  0.1170E-02
     -8.391  0.3849E-01  0.1031E-01  0.1449E-02
     -8.325  0.3675E-01  0.9936E-02  0.1467E-02
     -8.260  0.3464E-01  0.9248E-02  0.1602E-02
     -8.195  0.4045E-01  0.1025E-01  0.2121E-02
     -8.130  0.4967E-01  0.1189E-01  0.2685E-02
     -8.065  0.5121E-01  0.1152E-01  0.2698E-02
     -8.000  0.4665E-01  0.8879E-02  0.2172E-02
     -7.934  0.5362E-01  0.6910E-02  0.1851E-02
     -7.869  0.8245E-01  0.7930E-02  0.2280E-02
     -7.804  0.1155E+00  0.1045E-01  0.3024E-02
     -7.739  0.1212E+00  0.1083E-01  0.3085E-02
     -7.674  0.8853E-01  0.7387E-02  0.2022E-02
     -7.609  0.3848E-01  0.2099E-02  0.4507E-03
     -7.543  0.1946E-02 -0.9886E-03 -0.3130E-03
     -7.478 -0.2044E-02  0.2199E-02  0.1138E-02
     -7.413  0.3044E-01  0.1369E-01  0.5415E-02
     -7.348  0.8848E-01  0.3042E-01  0.1115E-01
     -7.283  0.1440E+00  0.4362E-01  0.1508E-01
     -7.218  0.1655E+00  0.4515E-01  0.1459E-01
     -7.152  0.1474E+00  0.3600E-01  0.1056E-01
     -7.087  0.1181E+00  0.2599E-01  0.6744E-02
     -7.022  0.1076E+00  0.2355E-01  0.6255E-02
     -6.957  0.1138E+00  0.2768E-01  0.9005E-02
     -6.892  0.1113E+00  0.3095E-01  0.1230E-01
     -6.827  0.8634E-01  0.2800E-01  0.1321E-01
     -6.761  0.4893E-01  0.1941E-01  0.1068E-01
     -6.696  0.1695E-01  0.9248E-02  0.6160E-02
     -6.631 -0.9369E-03  0.9685E-03  0.2224E-02
     -6.566 -0.6277E-02 -0.4068E-02  0.4247E-03
     -6.501 -0.3363E-03 -0.4654E-02  0.1095E-02
     -6.436  0.2659E-01  0.2735E-02  0.5821E-02
     -6.371  0.9026E-01  0.2171E-01  0.1837E-01
     -6.305  0.1858E+00  0.4890E-01  0.3999E-01
     -6.240  0.2695E+00  0.7171E-01  0.6392E-01
     -6.175  0.2885E+00  0.7863E-01  0.7920E-01
     -6.110  0.2362E+00  0.7137E-01  0.8165E-01
     -6.045  0.1599E+00  0.6163E-01  0.7654E-01
     -5.980  0.1087E+00  0.5640E-01  0.6957E-01
     -5.914  0.9293E-01  0.5226E-01  0.6162E-01
     -5.849  0.9636E-01  0.4420E-01  0.5415E-01
     -5.784  0.1054E+00  0.3359E-01  0.5170E-01
     -5.719  0.1147E+00  0.2516E-01  0.5534E-01
     -5.654  0.1220E+00  0.2181E-01  0.6163E-01
     -5.589  0.1328E+00  0.2631E-01  0.7402E-01
     -5.523  0.1567E+00  0.4303E-01  0.1070E+00