   16   16    1    1
  0.3859214E+02  0.5199964E-09  0.5199964E-09  0.2636863E-08  0.5000000E-15
  1.000000000000000E-004
  CAR 
 unknown system                          
    176     13    108
 
  0.0000000E+00  0.0000000E+00  0.0000000E+00  0.4000000E-01
    1       -9.322980   1.000000
    2       -8.087091   1.000000
    3       -6.473306   1.000000
    4       -5.608385   1.000000
    5       -5.335559   1.000000
    6       -5.335498   1.000000
    7       -5.335356   1.000000
    8       -5.199218   1.000000
    9       -5.199136   1.000000
   10       -5.198830   1.000000
   11       -4.829424   1.000000
   12       -4.829366   1.000000
   13       -4.829141   1.000000
   14       -4.794743   1.000000
   15       -4.794681   1.000000
   16       -4.794532   1.000000
   17       -4.757416   1.000000
   18       -4.757282   1.000000
   19       -4.757227   1.000000
   20       -4.388983   1.000000
   21       -4.388929   1.000000
   22       -4.388816   1.000000
   23       -3.851748   1.000000
   24       -3.851602   1.000000
   25       -3.851449   1.000000
   26       -3.651128   1.000000
   27       -3.641401   1.000000
   28       -3.641307   1.000000
   29       -3.641220   1.000000
   30       -3.630851   1.000000
   31       -3.555872   1.000000
   32       -3.555726   1.000000
   33       -3.519108   1.000000
   34       -3.518982   1.000000
   35       -3.512921   1.000000
   36       -3.512777   1.000000
   37       -3.512354   1.000000
   38       -3.388346   1.000000
   39       -3.388196   1.000000
   40       -3.380599   1.000000
   41       -3.349759   1.000000
   42       -3.349439   1.000000
   43       -3.349204   1.000000
   44       -3.342260   1.000000
   45       -3.342113   1.000000
   46       -3.077712   1.000000
   47       -3.077550   1.000000
   48       -3.077303   1.000000
   49       -3.055647   1.000000
   50       -3.055335   1.000000
   51       -3.055188   1.000000
   52       -2.818903   1.000000
   53       -2.818821   1.000000
   54       -2.722071   1.000000
   55       -2.722002   1.000000
   56       -2.625396   1.000000
   57       -2.625170   1.000000
   58       -2.625011   1.000000
   59       -2.544516   1.000000
   60       -2.544363   1.000000
   61       -2.544172   1.000000
   62       -2.482532   1.000000
   63       -2.482498   1.000000
   64       -2.350400   1.000000
   65       -2.350239   1.000000
   66       -2.350080   1.000000
   67       -2.350045   1.000000
   68       -2.349893   1.000000
   69       -2.349677   1.000000
   70       -2.316130   1.000000
   71       -2.316088   1.000000
   72       -2.272445   1.000000
   73       -2.272238   1.000000
   74       -2.271743   1.000000
   75       -2.217064   1.000000
   76       -2.216899   1.000000
   77       -2.216472   1.000000
   78       -2.154451   1.000000
   79       -2.154189   1.000000
   80       -2.154088   1.000000
   81       -2.138039   1.000000
   82       -2.137717   1.000000
   83       -2.137590   1.000000
   84       -1.888418   1.000000
   85       -0.918906   1.027238
   86       -0.918897   1.027234
   87       -0.918868   1.027221
   88       -0.842801   0.937648
   89        0.001008  -0.000003
   90        0.001105  -0.000003
   91        0.001128  -0.000003
   92        0.535802  -0.000000
   93        0.535891  -0.000000
   94        0.535934  -0.000000
   95        0.805115  -0.000000
   96        0.805134  -0.000000
   97        0.805174  -0.000000
   98        3.044628  -0.000000
   99        3.206218  -0.000000
  100        3.340142  -0.000000
  101        3.340166  -0.000000
  102        3.340244  -0.000000
  103        4.134014  -0.000000
  104        4.134078  -0.000000
  105        4.134117  -0.000000
  106        4.141468  -0.000000
  107        4.381380  -0.000000
  108        5.153746   0.000000
 
  0.2000000E+00 -0.1387779E-16  0.0000000E+00  0.8000000E-01
    1       -9.015946   1.000000
    2       -7.792555   1.000000
    3       -6.204237   1.000000
    4       -5.670523   1.000000
    5       -5.402305   1.000000
    6       -5.307783   1.000000
    7       -5.268664   1.000000
    8       -5.268617   1.000000
    9       -5.112124   1.000000
   10       -5.111968   1.000000
   11       -4.937144   1.000000
   12       -4.779713   1.000000
   13       -4.779612   1.000000
   14       -4.722752   1.000000
   15       -4.705084   1.000000
   16       -4.704970   1.000000
   17       -4.591893   1.000000
   18       -4.583286   1.000000
   19       -4.583181   1.000000
   20       -4.323561   1.000000
   21       -4.323475   1.000000
   22       -4.315473   1.000000
   23       -3.907682   1.000000
   24       -3.907632   1.000000
   25       -3.838138   1.000000
   26       -3.788467   1.000000
   27       -3.739260   1.000000
   28       -3.647880   1.000000
   29       -3.601652   1.000000
   30       -3.601455   1.000000
   31       -3.595549   1.000000
   32       -3.565752   1.000000
   33       -3.565663   1.000000
   34       -3.494795   1.000000
   35       -3.492996   1.000000
   36       -3.478830   1.000000
   37       -3.465131   1.000000
   38       -3.458731   1.000000
   39       -3.450369   1.000000
   40       -3.443755   1.000000
   41       -3.437765   1.000000
   42       -3.437593   1.000000
   43       -3.332556   1.000000
   44       -3.295077   1.000000
   45       -3.294907   1.000000
   46       -3.294145   1.000000
   47       -3.247892   1.000000
   48       -3.175493   1.000000
   49       -3.061971   1.000000
   50       -3.005369   1.000000
   51       -3.005194   1.000000
   52       -2.889676   1.000000
   53       -2.873502   1.000000
   54       -2.803010   1.000000
   55       -2.777606   1.000000
   56       -2.777492   1.000000
   57       -2.718364   1.000000
   58       -2.706726   1.000000
   59       -2.696041   1.000000
   60       -2.691207   1.000000
   61       -2.691061   1.000000
   62       -2.641373   1.000000
   63       -2.622955   1.000000
   64       -2.622822   1.000000
   65       -2.483161   1.000000
   66       -2.454127   1.000000
   67       -2.444234   1.000000
   68       -2.444002   1.000000
   69       -2.420814   1.000000
   70       -2.404554   1.000000
   71       -2.386830   1.000000
   72       -2.386631   1.000000
   73       -2.378678   1.000000
   74       -2.361673   1.000000
   75       -2.361569   1.000000
   76       -2.310141   1.000000
   77       -2.295536   1.000000
   78       -2.280922   1.000000
   79       -2.280715   1.000000
   80       -2.273341   1.000000
   81       -2.224771   1.000000
   82       -2.205132   1.000000
   83       -2.204757   1.000000
   84       -2.177349   1.000000
   85       -1.646670   1.000000
   86       -1.374524   1.000016
   87       -0.911628   1.023538
   88       -0.911438   1.023431
   89       -0.292089  -0.005469
   90       -0.292034  -0.005463
   91       -0.215407  -0.001180
   92       -0.161169  -0.000324
   93        0.859919  -0.000000
   94        0.859956  -0.000000
   95        1.898805  -0.000000
   96        1.898831  -0.000000
   97        2.011496  -0.000000
   98        3.312718  -0.000000
   99        3.506216  -0.000000
  100        3.637463  -0.000000
  101        3.637543  -0.000000
  102        4.056128  -0.000000
  103        4.438398  -0.000000
  104        4.512841  -0.000000
  105        4.512891  -0.000000
  106        4.637085  -0.000000
  107        4.788330   0.000000
  108        5.329180   0.000000
 
  0.4000000E+00 -0.2775558E-16  0.0000000E+00  0.8000000E-01
    1       -8.130657   1.000000
    2       -6.967852   1.000000
    3       -6.831290   1.000000
    4       -5.911827   1.000000
    5       -5.515449   1.000000
    6       -5.132366   1.000000
    7       -5.132287   1.000000
    8       -4.990993   1.000000
    9       -4.908167   1.000000
   10       -4.899666   1.000000
   11       -4.899548   1.000000
   12       -4.662384   1.000000
   13       -4.662117   1.000000
   14       -4.606054   1.000000
   15       -4.473814   1.000000
   16       -4.473663   1.000000
   17       -4.389491   1.000000
   18       -4.286863   1.000000
   19       -4.286644   1.000000
   20       -4.142953   1.000000
   21       -4.142862   1.000000
   22       -4.118101   1.000000
   23       -4.106612   1.000000
   24       -4.045806   1.000000
   25       -4.045786   1.000000
   26       -3.916252   1.000000
   27       -3.897512   1.000000
   28       -3.865728   1.000000
   29       -3.808968   1.000000
   30       -3.808796   1.000000
   31       -3.728184   1.000000
   32       -3.727940   1.000000
   33       -3.716365   1.000000
   34       -3.591743   1.000000
   35       -3.565328   1.000000
   36       -3.518213   1.000000
   37       -3.472872   1.000000
   38       -3.433816   1.000000
   39       -3.433770   1.000000
   40       -3.397715   1.000000
   41       -3.368324   1.000000
   42       -3.368283   1.000000
   43       -3.358071   1.000000
   44       -3.324609   1.000000
   45       -3.318619   1.000000
   46       -3.318513   1.000000
   47       -3.309388   1.000000
   48       -3.261794   1.000000
   49       -3.261711   1.000000
   50       -3.259395   1.000000
   51       -3.192795   1.000000
   52       -3.162653   1.000000
   53       -3.152629   1.000000
   54       -3.075082   1.000000
   55       -3.044439   1.000000
   56       -3.003187   1.000000
   57       -3.003097   1.000000
   58       -2.997439   1.000000
   59       -2.985530   1.000000
   60       -2.858981   1.000000
   61       -2.813028   1.000000
   62       -2.766488   1.000000
   63       -2.766344   1.000000
   64       -2.751160   1.000000
   65       -2.737036   1.000000
   66       -2.705257   1.000000
   67       -2.704940   1.000000
   68       -2.684548   1.000000
   69       -2.657663   1.000000
   70       -2.643919   1.000000
   71       -2.643677   1.000000
   72       -2.576982   1.000000
   73       -2.570546   1.000000
   74       -2.551281   1.000000
   75       -2.485657   1.000000
   76       -2.461767   1.000000
   77       -2.399912   1.000000
   78       -2.399845   1.000000
   79       -2.296744   1.000000
   80       -2.289934   1.000000
   81       -2.289727   1.000000
   82       -2.280005   1.000000
   83       -2.207052   1.000000
   84       -2.206597   1.000000
   85       -2.061605   1.000000
   86       -1.438318   1.000002
   87       -0.906819   1.020630
   88       -0.906529   1.020443
   89       -0.462687  -0.035282
   90       -0.320851  -0.008838
   91       -0.320793  -0.008830
   92        0.741075  -0.000000
   93        1.086145  -0.000000
   94        1.086185  -0.000000
   95        1.235065  -0.000000
   96        3.008860  -0.000000
   97        3.214725  -0.000000
   98        3.214779  -0.000000
   99        4.113550  -0.000000
  100        4.405076  -0.000000
  101        4.663703  -0.000000
  102        4.663772  -0.000000
  103        5.328618   0.000000
  104        5.418249   0.000000
  105        5.418418   0.000000
  106        5.573251   0.000000
  107        5.573286   0.000000
  108        5.909101   0.000000
 
  0.0000000E+00  0.2000000E+00  0.0000000E+00  0.8000000E-01
    1       -9.015946   1.000000
    2       -7.792555   1.000000
    3       -6.204237   1.000000
    4       -5.670522   1.000000
    5       -5.402305   1.000000
    6       -5.307784   1.000000
    7       -5.268689   1.000000
    8       -5.268594   1.000000
    9       -5.112201   1.000000
   10       -5.111892   1.000000
   11       -4.937144   1.000000
   12       -4.779780   1.000000
   13       -4.779546   1.000000
   14       -4.722751   1.000000
   15       -4.705092   1.000000
   16       -4.704962   1.000000
   17       -4.591894   1.000000
   18       -4.583360   1.000000
   19       -4.583105   1.000000
   20       -4.323617   1.000000
   21       -4.323420   1.000000
   22       -4.315471   1.000000
   23       -3.907763   1.000000
   24       -3.907551   1.000000
   25       -3.838137   1.000000
   26       -3.788468   1.000000
   27       -3.739259   1.000000
   28       -3.647881   1.000000
   29       -3.601695   1.000000
   30       -3.601411   1.000000
   31       -3.595551   1.000000
   32       -3.565789   1.000000
   33       -3.565625   1.000000
   34       -3.494800   1.000000
   35       -3.492993   1.000000
   36       -3.478833   1.000000
   37       -3.465129   1.000000
   38       -3.458732   1.000000
   39       -3.450369   1.000000
   40       -3.443755   1.000000
   41       -3.437863   1.000000
   42       -3.437494   1.000000
   43       -3.332556   1.000000
   44       -3.295157   1.000000
   45       -3.294824   1.000000
   46       -3.294148   1.000000
   47       -3.247893   1.000000
   48       -3.175493   1.000000
   49       -3.061973   1.000000
   50       -3.005458   1.000000
   51       -3.005103   1.000000
   52       -2.889676   1.000000
   53       -2.873501   1.000000
   54       -2.803007   1.000000
   55       -2.777663   1.000000
   56       -2.777433   1.000000
   57       -2.718363   1.000000
   58       -2.706726   1.000000
   59       -2.696036   1.000000
   60       -2.691313   1.000000
   61       -2.690959   1.000000
   62       -2.641375   1.000000
   63       -2.623068   1.000000
   64       -2.622707   1.000000
   65       -2.483164   1.000000
   66       -2.454125   1.000000
   67       -2.444357   1.000000
   68       -2.443878   1.000000
   69       -2.420812   1.000000
   70       -2.404552   1.000000
   71       -2.386908   1.000000
   72       -2.386553   1.000000
   73       -2.378679   1.000000
   74       -2.361735   1.000000
   75       -2.361508   1.000000
   76       -2.310145   1.000000
   77       -2.295536   1.000000
   78       -2.281071   1.000000
   79       -2.280571   1.000000
   80       -2.273341   1.000000
   81       -2.224772   1.000000
   82       -2.205345   1.000000
   83       -2.204544   1.000000
   84       -2.177346   1.000000
   85       -1.646670   1.000000
   86       -1.374523   1.000016
   87       -0.911727   1.023595
   88       -0.911341   1.023376
   89       -0.292150  -0.005475
   90       -0.291974  -0.005458
   91       -0.215409  -0.001180
   92       -0.161168  -0.000324
   93        0.859921  -0.000000
   94        0.859957  -0.000000
   95        1.898809  -0.000000
   96        1.898832  -0.000000
   97        2.011494  -0.000000
   98        3.312718  -0.000000
   99        3.506215  -0.000000
  100        3.637456  -0.000000
  101        3.637544  -0.000000
  102        4.056132  -0.000000
  103        4.438398  -0.000000
  104        4.512827  -0.000000
  105        4.512903  -0.000000
  106        4.637085  -0.000000
  107        4.788331   0.000000
  108        5.329695   0.000000
 
  0.2000000E+00  0.2000000E+00  0.0000000E+00  0.8000000E-01
    1       -9.015949   1.000000
    2       -7.792557   1.000000
    3       -6.204238   1.000000
    4       -5.670558   1.000000
    5       -5.402302   1.000000
    6       -5.307788   1.000000
    7       -5.268642   1.000000
    8       -5.268591   1.000000
    9       -5.112137   1.000000
   10       -5.111964   1.000000
   11       -4.937122   1.000000
   12       -4.779694   1.000000
   13       -4.779634   1.000000
   14       -4.722651   1.000000
   15       -4.705118   1.000000
   16       -4.705047   1.000000
   17       -4.591817   1.000000
   18       -4.583280   1.000000
   19       -4.583264   1.000000
   20       -4.323559   1.000000
   21       -4.323553   1.000000
   22       -4.315415   1.000000
   23       -3.907739   1.000000
   24       -3.907627   1.000000
   25       -3.838077   1.000000
   26       -3.788388   1.000000
   27       -3.739290   1.000000
   28       -3.647783   1.000000
   29       -3.601686   1.000000
   30       -3.601488   1.000000
   31       -3.595465   1.000000
   32       -3.565782   1.000000
   33       -3.565648   1.000000
   34       -3.494684   1.000000
   35       -3.492921   1.000000
   36       -3.478864   1.000000
   37       -3.465147   1.000000
   38       -3.458828   1.000000
   39       -3.450469   1.000000
   40       -3.443643   1.000000
   41       -3.437754   1.000000
   42       -3.437657   1.000000
   43       -3.332474   1.000000
   44       -3.295018   1.000000
   45       -3.294942   1.000000
   46       -3.294256   1.000000
   47       -3.248003   1.000000
   48       -3.175481   1.000000
   49       -3.062010   1.000000
   50       -3.005337   1.000000
   51       -3.005215   1.000000
   52       -2.889616   1.000000
   53       -2.873566   1.000000
   54       -2.802979   1.000000
   55       -2.777598   1.000000
   56       -2.777553   1.000000
   57       -2.718386   1.000000
   58       -2.706785   1.000000
   59       -2.696016   1.000000
   60       -2.691152   1.000000
   61       -2.691042   1.000000
   62       -2.641412   1.000000
   63       -2.622888   1.000000
   64       -2.622818   1.000000
   65       -2.483189   1.000000
   66       -2.454155   1.000000
   67       -2.444211   1.000000
   68       -2.444036   1.000000
   69       -2.420784   1.000000
   70       -2.404633   1.000000
   71       -2.386771   1.000000
   72       -2.386660   1.000000
   73       -2.378804   1.000000
   74       -2.361670   1.000000
   75       -2.361631   1.000000
   76       -2.310176   1.000000
   77       -2.295652   1.000000
   78       -2.280749   1.000000
   79       -2.280654   1.000000
   80       -2.273473   1.000000
   81       -2.224867   1.000000
   82       -2.204960   1.000000
   83       -2.204637   1.000000
   84       -2.177342   1.000000
   85       -1.646644   1.000000
   86       -1.374518   1.000016
   87       -0.911578   1.023510
   88       -0.911409   1.023414
   89       -0.292056  -0.005465
   90       -0.292045  -0.005464
   91       -0.215371  -0.001179
   92       -0.161167  -0.000324
   93        0.859907  -0.000000
   94        0.859923  -0.000000
   95        1.898796  -0.000000
   96        1.898800  -0.000000
   97        2.011490  -0.000000
   98        3.312719  -0.000000
   99        3.506216  -0.000000
  100        3.637458  -0.000000
  101        3.637465  -0.000000
  102        4.056210  -0.000000
  103        4.438398  -0.000000
  104        4.512836  -0.000000
  105        4.512844  -0.000000
  106        4.637086  -0.000000
  107        4.788361   0.000000
  108        5.329174   0.000000
 
  0.4000000E+00  0.2000000E+00  0.0000000E+00  0.8000000E-01
    1       -8.418273   1.000000
    2       -7.229520   1.000000
    3       -6.000673   1.000000
    4       -6.000580   1.000000
    5       -5.714883   1.000000
    6       -5.381794   1.000000
    7       -5.381766   1.000000
    8       -5.041325   1.000000
    9       -4.876075   1.000000
   10       -4.849848   1.000000
   11       -4.849716   1.000000
   12       -4.844685   1.000000
   13       -4.575405   1.000000
   14       -4.575264   1.000000
   15       -4.548593   1.000000
   16       -4.481767   1.000000
   17       -4.391900   1.000000
   18       -4.381725   1.000000
   19       -4.381618   1.000000
   20       -4.204269   1.000000
   21       -4.204164   1.000000
   22       -4.179519   1.000000
   23       -4.092949   1.000000
   24       -3.965555   1.000000
   25       -3.922934   1.000000
   26       -3.921534   1.000000
   27       -3.921374   1.000000
   28       -3.807765   1.000000
   29       -3.754306   1.000000
   30       -3.754096   1.000000
   31       -3.722383   1.000000
   32       -3.698781   1.000000
   33       -3.594607   1.000000
   34       -3.547899   1.000000
   35       -3.545820   1.000000
   36       -3.545760   1.000000
   37       -3.532208   1.000000
   38       -3.467907   1.000000
   39       -3.467692   1.000000
   40       -3.463022   1.000000
   41       -3.399876   1.000000
   42       -3.395129   1.000000
   43       -3.323456   1.000000
   44       -3.311415   1.000000
   45       -3.311365   1.000000
   46       -3.259036   1.000000
   47       -3.215069   1.000000
   48       -3.214910   1.000000
   49       -3.134518   1.000000
   50       -3.134171   1.000000
   51       -3.130340   1.000000
   52       -3.104023   1.000000
   53       -3.079552   1.000000
   54       -3.076468   1.000000
   55       -3.010382   1.000000
   56       -3.009061   1.000000
   57       -2.988164   1.000000
   58       -2.976382   1.000000
   59       -2.976271   1.000000
   60       -2.926540   1.000000
   61       -2.747721   1.000000
   62       -2.746549   1.000000
   63       -2.746390   1.000000
   64       -2.731864   1.000000
   65       -2.684342   1.000000
   66       -2.684080   1.000000
   67       -2.594796   1.000000
   68       -2.590604   1.000000
   69       -2.581710   1.000000
   70       -2.581533   1.000000
   71       -2.573601   1.000000
   72       -2.477619   1.000000
   73       -2.410300   1.000000
   74       -2.410146   1.000000
   75       -2.389565   1.000000
   76       -2.384445   1.000000
   77       -2.384251   1.000000
   78       -2.355232   1.000000
   79       -2.349230   1.000000
   80       -2.277505   1.000000
   81       -2.277371   1.000000
   82       -2.270101   1.000000
   83       -2.139283   1.000000
   84       -2.049756   1.000000
   85       -2.049629   1.000000
   86       -1.848242   1.000000
   87       -1.848160   1.000000
   88       -0.727731   0.555602
   89       -0.599326   0.090967
   90       -0.599242   0.090768
   91        0.795312  -0.000000
   92        0.820772  -0.000000
   93        1.221831  -0.000000
   94        1.714499  -0.000000
   95        1.714554  -0.000000
   96        1.755972  -0.000000
   97        2.299113  -0.000000
   98        3.847515  -0.000000
   99        3.874924  -0.000000
  100        4.105894  -0.000000
  101        4.220774  -0.000000
  102        4.220785  -0.000000
  103        4.737914  -0.000000
  104        5.032170   0.000000
  105        5.156539   0.000000
  106        5.706472   0.000000
  107        5.706564   0.000000
  108        5.950082   0.000000
 
 -0.4000000E+00  0.2000000E+00  0.0000000E+00  0.8000000E-01
    1       -7.308114   1.000000
    2       -7.308079   1.000000
    3       -6.251426   1.000000
    4       -6.251362   1.000000
    5       -6.129598   1.000000
    6       -5.378055   1.000000
    7       -5.041425   1.000000
    8       -5.041372   1.000000
    9       -4.731658   1.000000
   10       -4.638318   1.000000
   11       -4.579325   1.000000
   12       -4.572703   1.000000
   13       -4.572587   1.000000
   14       -4.512067   1.000000
   15       -4.350884   1.000000
   16       -4.325439   1.000000
   17       -4.285041   1.000000
   18       -4.272119   1.000000
   19       -4.230565   1.000000
   20       -4.222926   1.000000
   21       -4.222721   1.000000
   22       -4.081141   1.000000
   23       -4.077938   1.000000
   24       -4.049052   1.000000
   25       -4.048799   1.000000
   26       -4.005919   1.000000
   27       -3.993114   1.000000
   28       -3.992989   1.000000
   29       -3.829765   1.000000
   30       -3.803830   1.000000
   31       -3.749547   1.000000
   32       -3.726212   1.000000
   33       -3.726156   1.000000
   34       -3.703381   1.000000
   35       -3.677798   1.000000
   36       -3.666339   1.000000
   37       -3.666207   1.000000
   38       -3.654859   1.000000
   39       -3.600062   1.000000
   40       -3.599952   1.000000
   41       -3.471724   1.000000
   42       -3.471633   1.000000
   43       -3.457479   1.000000
   44       -3.393228   1.000000
   45       -3.382907   1.000000
   46       -3.373536   1.000000
   47       -3.312646   1.000000
   48       -3.312586   1.000000
   49       -3.295487   1.000000
   50       -3.283650   1.000000
   51       -3.192650   1.000000
   52       -3.192508   1.000000
   53       -3.042899   1.000000
   54       -3.039515   1.000000
   55       -3.039348   1.000000
   56       -3.008673   1.000000
   57       -3.008598   1.000000
   58       -2.945193   1.000000
   59       -2.893793   1.000000
   60       -2.886179   1.000000
   61       -2.885973   1.000000
   62       -2.804472   1.000000
   63       -2.775358   1.000000
   64       -2.739196   1.000000
   65       -2.705399   1.000000
   66       -2.705301   1.000000
   67       -2.687384   1.000000
   68       -2.638473   1.000000
   69       -2.638318   1.000000
   70       -2.590216   1.000000
   71       -2.590156   1.000000
   72       -2.551764   1.000000
   73       -2.510686   1.000000
   74       -2.510551   1.000000
   75       -2.491802   1.000000
   76       -2.491626   1.000000
   77       -2.432012   1.000000
   78       -2.407367   1.000000
   79       -2.371417   1.000000
   80       -2.366454   1.000000
   81       -2.347789   1.000000
   82       -2.347726   1.000000
   83       -2.300390   1.000000
   84       -2.289626   1.000000
   85       -1.980932   1.000000
   86       -1.797365   1.000000
   87       -1.643270   1.000000
   88       -1.643133   1.000000
   89       -0.648526   0.236757
   90        0.301880  -0.000000
   91        0.301924  -0.000000
   92        1.015548  -0.000000
   93        1.583983  -0.000000
   94        1.871301  -0.000000
   95        2.355420  -0.000000
   96        2.355473  -0.000000
   97        3.180759  -0.000000
   98        3.810748  -0.000000
   99        3.892694  -0.000000
  100        3.992838  -0.000000
  101        4.843369   0.000000
  102        4.915028   0.000000
  103        4.915073   0.000000
  104        5.053467   0.000000
  105        5.301382   0.000000
  106        5.301401   0.000000
  107        5.925721   0.000000
  108        6.226269   0.000000
 
 -0.2000000E+00  0.2000000E+00  0.0000000E+00  0.8000000E-01
    1       -8.418265   1.000000
    2       -7.229513   1.000000
    3       -6.000649   1.000000
    4       -6.000607   1.000000
    5       -5.714879   1.000000
    6       -5.381813   1.000000
    7       -5.381749   1.000000
    8       -5.041332   1.000000
    9       -4.876107   1.000000
   10       -4.849807   1.000000
   11       -4.849778   1.000000
   12       -4.844670   1.000000
   13       -4.575404   1.000000
   14       -4.575368   1.000000
   15       -4.548466   1.000000
   16       -4.481745   1.000000
   17       -4.391916   1.000000
   18       -4.381737   1.000000
   19       -4.381674   1.000000
   20       -4.204250   1.000000
   21       -4.204189   1.000000
   22       -4.179422   1.000000
   23       -4.092945   1.000000
   24       -3.965586   1.000000
   25       -3.922986   1.000000
   26       -3.921485   1.000000
   27       -3.921388   1.000000
   28       -3.807861   1.000000
   29       -3.754310   1.000000
   30       -3.754069   1.000000
   31       -3.722398   1.000000
   32       -3.698776   1.000000
   33       -3.594704   1.000000
   34       -3.547952   1.000000
   35       -3.545822   1.000000
   36       -3.545748   1.000000
   37       -3.532267   1.000000
   38       -3.467836   1.000000
   39       -3.467820   1.000000
   40       -3.462997   1.000000
   41       -3.399883   1.000000
   42       -3.395059   1.000000
   43       -3.323453   1.000000
   44       -3.311423   1.000000
   45       -3.311357   1.000000
   46       -3.258930   1.000000
   47       -3.215027   1.000000
   48       -3.214873   1.000000
   49       -3.134337   1.000000
   50       -3.134264   1.000000
   51       -3.130408   1.000000
   52       -3.103919   1.000000
   53       -3.079424   1.000000
   54       -3.076496   1.000000
   55       -3.010430   1.000000
   56       -3.009104   1.000000
   57       -2.988175   1.000000
   58       -2.976334   1.000000
   59       -2.976236   1.000000
   60       -2.926546   1.000000
   61       -2.747772   1.000000
   62       -2.746475   1.000000
   63       -2.746281   1.000000
   64       -2.731769   1.000000
   65       -2.684227   1.000000
   66       -2.684075   1.000000
   67       -2.594762   1.000000
   68       -2.590678   1.000000
   69       -2.581692   1.000000
   70       -2.581518   1.000000
   71       -2.573570   1.000000
   72       -2.477689   1.000000
   73       -2.410303   1.000000
   74       -2.410188   1.000000
   75       -2.389586   1.000000
   76       -2.384397   1.000000
   77       -2.384393   1.000000
   78       -2.355289   1.000000
   79       -2.349194   1.000000
   80       -2.277507   1.000000
   81       -2.277464   1.000000
   82       -2.270149   1.000000
   83       -2.139309   1.000000
   84       -2.049768   1.000000
   85       -2.049705   1.000000
   86       -1.848270   1.000000
   87       -1.848167   1.000000
   88       -0.727741   0.555640
   89       -0.599288   0.090876
   90       -0.599258   0.090807
   91        0.795290  -0.000000
   92        0.820772  -0.000000
   93        1.221814  -0.000000
   94        1.714505  -0.000000
   95        1.714571  -0.000000
   96        1.756000  -0.000000
   97        2.299140  -0.000000
   98        3.847513  -0.000000
   99        3.874980  -0.000000
  100        4.105894  -0.000000
  101        4.220769  -0.000000
  102        4.220789  -0.000000
  103        4.737964  -0.000000
  104        5.032170   0.000000
  105        5.156538   0.000000
  106        5.706476   0.000000
  107        5.706521   0.000000
  108        5.950135   0.000000
 
  0.0000000E+00  0.4000000E+00  0.0000000E+00  0.8000000E-01
    1       -8.130657   1.000000
    2       -6.967852   1.000000
    3       -6.831289   1.000000
    4       -5.911827   1.000000
    5       -5.515449   1.000000
    6       -5.132392   1.000000
    7       -5.132263   1.000000
    8       -4.990993   1.000000
    9       -4.908167   1.000000
   10       -4.899757   1.000000
   11       -4.899458   1.000000
   12       -4.662481   1.000000
   13       -4.662021   1.000000
   14       -4.606053   1.000000
   15       -4.473847   1.000000
   16       -4.473630   1.000000
   17       -4.389492   1.000000
   18       -4.286960   1.000000
   19       -4.286546   1.000000
   20       -4.143011   1.000000
   21       -4.142804   1.000000
   22       -4.118103   1.000000