/home/zulissi/software/vasp/5.4.4_impi_cuda_patch0518_intel0818/bin/:/home/zulissi/software/vasp/5.4.4_impi_cuda_patch0518_intel0818/bin:/usr/local/cuda-9.0/samples-bin:/usr/local/cuda-9.0/bin:/opt/ohpc/pub/intel/intel18/compilers_and_libraries_2018.3.222/linux/mpi/intel64/bin_ohpc:/opt/ohpc/pub/intel/intel18/compilers_and_libraries_2018.3.222/linux/mpi/intel64/bin:/opt/ohpc/pub/intel/intel18/compilers_and_libraries_2018.3.222/linux/bin/intel64:/home/zulissi/GASpy_conda/bin:/opt/ohpc/pub/python/anaconda2/bin:/usr/lib64/qt-3.3/bin:/usr/local/bin:/usr/bin:/usr/local/sbin:/usr/sbin:/home/katsuyut/.local/bin:/home/katsuyut/bin:/home/katsuyut/.local/bin:/home/katsuyut/bin
/tmp
./run_vasp.py
/home/katsuyut/5.4.4
 running on   16 total cores
 distrk:  each k-point on   16 cores,    1 groups
 distr:  one band on    4 cores,    4 groups
 using from now: INCAR     
 vasp.5.4.4.18Apr17-6-g9f103f2a35 (build Aug 07 2018 15:16:41) complex          
  
 POSCAR found :  1 types and      16 ions
 scaLAPACK will be used

 ----------------------------------------------------------------------------- 
|                                                                             |
|  ADVICE TO THIS USER RUNNING 'VASP/VAMP'   (HEAR YOUR MASTER'S VOICE ...):  |
|                                                                             |
|      You enforced a specific xc-type in the INCAR file,                     |
|      a different type was found on the POTCAR file                          |
|          I HOPE YOU KNOW, WHAT YOU ARE  DOING                               |
|                                                                             |
 ----------------------------------------------------------------------------- 

 LDA part: xc-table for Pade appr. of Perdew
 POSCAR, INCAR and KPOINTS ok, starting setup
 FFT: planning ...
 WAVECAR not read
 entering main loop
       N       E                     dE             d eps       ncg     rms          rms(c)
DAV:   1     0.144891491133E+04    0.14489E+04   -0.59223E+04  2808   0.146E+03
DAV:   2     0.883550851114E+02   -0.13606E+04   -0.13101E+04  2808   0.372E+02
DAV:   3    -0.531861673706E+02   -0.14154E+03   -0.12995E+03  2960   0.174E+02
DAV:   4    -0.597010440664E+02   -0.65149E+01   -0.63795E+01  3056   0.495E+01
DAV:   5    -0.598808820223E+02   -0.17984E+00   -0.17920E+00  3296   0.639E+00    0.274E+01
DAV:   6    -0.544024764204E+02    0.54784E+01   -0.13714E+02  3120   0.115E+02    0.156E+01
DAV:   7    -0.488834944789E+02    0.55190E+01   -0.27312E+01  3316   0.525E+01    0.176E+00
DAV:   8    -0.489581050858E+02   -0.74611E-01   -0.14229E+00  3744   0.254E+01    0.283E+00
DAV:   9    -0.488948505971E+02    0.63254E-01   -0.41217E-01  3344   0.252E+01    0.185E+00
DAV:  10    -0.488462719647E+02    0.48579E-01   -0.12975E-01  4436   0.139E+01    0.134E+00
DAV:  11    -0.488173157114E+02    0.28956E-01   -0.11884E-01  3516   0.665E+00    0.321E-01
DAV:  12    -0.488175680016E+02   -0.25229E-03   -0.46065E-02  3204   0.221E+00    0.220E-01
DAV:  13    -0.488162523156E+02    0.13157E-02   -0.20419E-02  3088   0.247E+00    0.194E-01
DAV:  14    -0.488156116916E+02    0.64062E-03   -0.30302E-03  3356   0.117E+00    0.162E-01
DAV:  15    -0.488151533718E+02    0.45832E-03   -0.23368E-03  3040   0.923E-01    0.412E-02
DAV:  16    -0.488150594345E+02    0.93937E-04   -0.54471E-04  2848   0.336E-01
   1 F= -.48815059E+02 E0= -.48816521E+02  d E =0.438457E-02
Cu_111_u2.traj, -48.81652096
