 vasp.5.4.4.18Apr17-6-g9f103f2a35 (build Aug 07 2018 15:16:41) complex          
  
 executed on             LinuxIFC date 2019.10.18  01:18:37
 running on   16 total cores
 distrk:  each k-point on   16 cores,    1 groups
 distr:  one band on NCORES_PER_BAND=   4 cores,    4 groups


--------------------------------------------------------------------------------------------------------


 INCAR:
 POTCAR:    PAW_PBE Cu 22Jun2005                  
 POTCAR:    PAW_PBE Cu 22Jun2005                  
   VRHFIN =Cu: d10 p1                                                           
   LEXCH  = PE                                                                  
   EATOM  =  1390.9808 eV,  102.2342 Ry                                         
                                                                                
   TITEL  = PAW_PBE Cu 22Jun2005                                                
   LULTRA =        F    use ultrasoft PP ?                                      
   IUNSCR =        1    unscreen: 0-lin 1-nonlin 2-no                           
   RPACOR =    2.000    partial core radius                                     
   POMASS =   63.546; ZVAL   =   11.000    mass and valenz                      
   RCORE  =    2.300    outmost cutoff radius                                   
   RWIGS  =    2.200; RWIGS  =    1.164    wigner-seitz radius (au A)           
   ENMAX  =  295.446; ENMIN  =  221.585 eV                                      
   ICORE  =        3    local potential                                         
   LCOR   =        T    correct aug charges                                     
   LPAW   =        T    paw PP                                                  
   EAUG   =  586.980                                                            
   DEXC   =    0.000                                                            
   RMAX   =    2.344    core radius for proj-oper                               
   RAUG   =    1.300    factor for augmentation sphere                          
   RDEP   =    2.302    radius for radial grids                                 
   RDEPT  =    1.771    core radius for aug-charge                              
                                                                                
   Atomic configuration                                                         
    9 entries                                                                   
     n  l   j            E        occ.                                          
     1  0  0.50     -8850.2468   2.0000                                         
     2  0  0.50     -1062.3498   2.0000                                         
     2  1  1.50      -916.8226   6.0000                                         
     3  0  0.50      -114.6929   2.0000                                         
     3  1  1.50       -72.1325   6.0000                                         
     3  2  2.50        -5.0394  10.0000                                         
     4  0  0.50        -4.6097   1.0000                                         
     4  1  0.50        -4.0817   0.0000                                         
     4  3  2.50        -1.3606   0.0000                                         
   Description                                                                  
     l       E           TYP  RCUT    TYP  RCUT                                 
     2     -5.0393973     23  2.200                                             
     2     10.8846608     23  2.200                                             
     0     -4.6097109     23  2.200                                             
     0      8.2520465     23  2.200                                             
     1     -2.7211652     23  2.200                                             
     1     21.7055443     23  2.200                                             
     3      2.7211652     23  2.300                                             
  local pseudopotential read in
  partial core-charges read in
  partial kinetic energy density read in
  atomic valenz-charges read in
  non local Contribution for L=           2  read in
    real space projection operators read in
  non local Contribution for L=           2  read in
    real space projection operators read in
  non local Contribution for L=           0  read in
    real space projection operators read in
  non local Contribution for L=           0  read in
    real space projection operators read in
  non local Contribution for L=           1  read in
    real space projection operators read in
  non local Contribution for L=           1  read in
    real space projection operators read in
    PAW grid and wavefunctions read in
 
   number of l-projection  operators is LMAX  =           6
   number of lm-projection operators is LMMAX =          18
 
 Optimization of the real space projectors (new method)

 maximal supplied QI-value         = 16.25
 optimisation between [QCUT,QGAM] = [  9.43, 19.01] = [ 24.88,101.24] Ry 
 Optimized for a Real-space Cutoff    1.66 Angstroem

   l    n(q)    QCUT    max X(q) W(low)/X(q) W(high)/X(q)  e(spline) 
   2      8     9.426     4.610    0.15E-03    0.59E-04    0.31E-06
   2      8     9.426     8.522    0.24E-03    0.87E-04    0.54E-06
   0      9     9.426    51.609    0.44E-04    0.64E-05    0.15E-06
   0      9     9.426    27.747    0.41E-04    0.65E-05    0.15E-06
   1      9     9.426    20.408    0.73E-04    0.11E-03    0.16E-06
   1      9     9.426    13.425    0.63E-04    0.98E-04    0.15E-06

 ----------------------------------------------------------------------------- 
|                                                                             |
|  ADVICE TO THIS USER RUNNING 'VASP/VAMP'   (HEAR YOUR MASTER'S VOICE ...):  |
|                                                                             |
|      You enforced a specific xc-type in the INCAR file,                     |
|      a different type was found on the POTCAR file                          |
|          I HOPE YOU KNOW, WHAT YOU ARE  DOING                               |
|                                                                             |
 ----------------------------------------------------------------------------- 

  PAW_PBE Cu 22Jun2005                  :
 energy of atom  1       EATOM=-1390.9808
 kinetic energy error for atom=    0.0356 (will be added to EATOM!!)
 
 
 POSCAR: Cu                                      
  positions in cartesian coordinates
  No initial velocities read in
 exchange correlation table for  LEXCH =        9
   RHO(1)=    0.500       N(1)  =     2000
   RHO(2)=  100.500       N(2)  =     4000
 


--------------------------------------------------------------------------------------------------------


 ion  position               nearest neighbor table
   1  0.000  0.000  0.379-   5 2.60   3 2.60   3 2.60   4 2.60   4 2.60   2 2.60   2 2.60   6 2.60
                             7 2.60
   2  0.500  0.000  0.379-   6 2.60   4 2.60   3 2.60   4 2.60   3 2.60   1 2.60   1 2.60   5 2.60
                             8 2.60
   3  0.000  0.500  0.379-   7 2.60   1 2.60   1 2.60   2 2.60   2 2.60   4 2.60   4 2.60   5 2.60
                             8 2.60
   4  0.500  0.500  0.379-   8 2.60   2 2.60   1 2.60   2 2.60   1 2.60   3 2.60   3 2.60   7 2.60
                             6 2.60
   5  0.167  0.167  0.460-  12 2.57  10 2.57   9 2.57   1 2.60   7 2.60   7 2.60   8 2.60   8 2.60
                             6 2.60   6 2.60   3 2.60   2 2.60
   6  0.667  0.167  0.460-   9 2.57  10 2.57  11 2.57   2 2.60   8 2.60   7 2.60   8 2.60   7 2.60
                             5 2.60   5 2.60   4 2.60   1 2.60
   7  0.167  0.667  0.460-  12 2.57  10 2.57  11 2.57   3 2.60   5 2.60   5 2.60   6 2.60   6 2.60
                             8 2.60   8 2.60   4 2.60   1 2.60
   8  0.667  0.667  0.460-  12 2.57  11 2.57   9 2.57   4 2.60   6 2.60   5 2.60   6 2.60   5 2.60
                             7 2.60   7 2.60   2 2.60   3 2.60
   9  0.833  0.333  0.539-   6 2.57   5 2.57   8 2.57  13 2.57  16 2.57  15 2.57  11 2.60  12 2.60
                            10 2.60  10 2.60  12 2.60  11 2.60
  10  0.333  0.333  0.539-   5 2.57   6 2.57   7 2.57  14 2.57  16 2.57  15 2.57  11 2.60  12 2.60
                             9 2.60   9 2.60  12 2.60  11 2.60
  11  0.833  0.833  0.539-   6 2.57   7 2.57   8 2.57  14 2.57  13 2.57  15 2.57   9 2.60  12 2.60
                            10 2.60  10 2.60  12 2.60   9 2.60
  12  0.333  0.833  0.539-   5 2.57   7 2.57   8 2.57  13 2.57  16 2.57  14 2.57   9 2.60  11 2.60
                            10 2.60  10 2.60  11 2.60   9 2.60
  13  1.000  0.000  0.618-   9 2.57  11 2.57  12 2.57  14 2.60  16 2.60  15 2.60  15 2.60  16 2.60
                            14 2.60
  14  0.500  0.000  0.618-  11 2.57  10 2.57  12 2.57  13 2.60  16 2.60  15 2.60  15 2.60  16 2.60
                            13 2.60
  15  1.000  0.500  0.618-  11 2.57  10 2.57   9 2.57  14 2.60  13 2.60  16 2.60  16 2.60  13 2.60
                            14 2.60
  16  0.500  0.500  0.618-   9 2.57  10 2.57  12 2.57  13 2.60  14 2.60  15 2.60  15 2.60  14 2.60
                            13 2.60
 

IMPORTANT INFORMATION: All symmetrisations will be switched off!
NOSYMM: (Re-)initialisation of all symmetry stuff for point group C_1.

 
 
 KPOINTS: KPOINTS created by Atomic Simulation Env

Automatic generation of k-mesh.
Space group operators:
 irot       det(A)        alpha          n_x          n_y          n_z        tau_x        tau_y        tau_z
    1     1.000000     0.000000     1.000000     0.000000     0.000000     0.000000     0.000000     0.000000
 
 Subroutine IBZKPT returns following result:
 ===========================================
 
 Found     13 irreducible k-points:
 
 Following reciprocal coordinates:
            Coordinates               Weight
  0.000000  0.000000  0.000000      1.000000
  0.200000 -0.000000  0.000000      2.000000
  0.400000 -0.000000  0.000000      2.000000
  0.000000  0.200000  0.000000      2.000000
  0.200000  0.200000  0.000000      2.000000
  0.400000  0.200000  0.000000      2.000000
 -0.400000  0.200000  0.000000      2.000000
 -0.200000  0.200000  0.000000      2.000000
  0.000000  0.400000  0.000000      2.000000
  0.200000  0.400000  0.000000      2.000000
  0.400000  0.400000  0.000000      2.000000
 -0.400000  0.400000  0.000000      2.000000
 -0.200000  0.400000  0.000000      2.000000
 
 Following cartesian coordinates:
            Coordinates               Weight
  0.000000  0.000000  0.000000      1.000000
  0.038462 -0.022206  0.000000      2.000000
  0.076924 -0.044412  0.000000      2.000000
  0.000000  0.044412  0.000000      2.000000
  0.038462  0.022206  0.000000      2.000000
  0.076924  0.000000  0.000000      2.000000
 -0.076924  0.088824  0.000000      2.000000
 -0.038462  0.066618  0.000000      2.000000
  0.000000  0.088824  0.000000      2.000000
  0.038462  0.066618  0.000000      2.000000
  0.076924  0.044412  0.000000      2.000000
 -0.076924  0.133236  0.000000      2.000000
 -0.038462  0.111030  0.000000      2.000000
 


--------------------------------------------------------------------------------------------------------




 Dimension of arrays:
   k-points           NKPTS =     13   k-points in BZ     NKDIM =     13   number of bands    NBANDS=    108
   number of dos      NEDOS =    301   number of ions     NIONS =     16
   non local maximal  LDIM  =      6   non local SUM 2l+1 LMDIM =     18
   total plane-waves  NPLWV =  72576
   max r-space proj   IRMAX =   2306   max aug-charges    IRDMAX=   3604
   dimension x,y,z NGX =    24 NGY =   24 NGZ =  126
   dimension x,y,z NGXF=    48 NGYF=   48 NGZF=  252
   support grid    NGXF=    48 NGYF=   48 NGZF=  252
   ions per type =              16
   NGX,Y,Z   is equivalent  to a cutoff of   7.67,  7.67,  7.94 a.u.
   NGXF,Y,Z  is equivalent  to a cutoff of  15.35, 15.35, 15.89 a.u.

 SYSTEM =  unknown system                          
 POSCAR =  Cu                                      

 Startparameter for this run:
   NWRITE =      2    write-flag & timer
   PREC   = normal    normal or accurate (medium, high low for compatibility)
   ISTART =      0    job   : 0-new  1-cont  2-samecut
   ICHARG =      2    charge: 1-file 2-atom 10-const
   ISPIN  =      1    spin polarized calculation?
   LNONCOLLINEAR =      F non collinear calculations
   LSORBIT =      F    spin-orbit coupling
   INIWAV =      1    electr: 0-lowe 1-rand  2-diag
   LASPH  =      F    aspherical Exc in radial PAW
   METAGGA=      F    non-selfconsistent MetaGGA calc.

 Electronic Relaxation 1
   ENCUT  =  350.0 eV  25.72 Ry    5.07 a.u.   7.93  7.93 40.22*2*pi/ulx,y,z
   ENINI  =  350.0     initial cutoff
   ENAUG  =  587.0 eV  augmentation charge cutoff
   NELM   =     60;   NELMIN=  2; NELMDL= -5     # of ELM steps 
   EDIFF  = 0.1E-03   stopping-criterion for ELM
   LREAL  =      T    real-space projection
   NLSPLINE    = F    spline interpolate recip. space projectors
   LCOMPAT=      F    compatible to vasp.4.4
   GGA_COMPAT  = T    GGA compatible to vasp.4.4-vasp.4.6
   LMAXPAW     = -100 max onsite density
   LMAXMIX     =    2 max onsite mixed and CHGCAR
   VOSKOWN=      0    Vosko Wilk Nusair interpolation
   ROPT   =   -0.00050
 Ionic relaxation
   EDIFFG = -.3E-01   stopping-criterion for IOM
   NSW    =      0    number of steps for IOM
   NBLOCK =      1;   KBLOCK =      1    inner block; outer block 
   IBRION =     -1    ionic relax: 0-MD 1-quasi-New 2-CG
   NFREE  =      1    steps in history (QN), initial steepest desc. (CG)
   ISIF   =      0    stress and relaxation
   IWAVPR =     10    prediction:  0-non 1-charg 2-wave 3-comb
   ISYM   =      0    0-nonsym 1-usesym 2-fastsym
   LCORR  =      T    Harris-Foulkes like correction to forces

   POTIM  = 0.5000    time-step for ionic-motion
   TEIN   =    0.0    initial temperature
   TEBEG  =    0.0;   TEEND  =   0.0 temperature during run
   SMASS  =  -3.00    Nose mass-parameter (am)
   estimated Nose-frequenzy (Omega)   =  0.10E-29 period in steps =****** mass=  -0.618E-27a.u.
   SCALEE = 1.0000    scale energy and forces
   NPACO  =    256;   APACO  = 16.0  distance and # of slots for P.C.
   PSTRESS=    0.0 pullay stress

  Mass of Ions in am
   POMASS =  63.55
  Ionic Valenz
   ZVAL   =  11.00
  Atomic Wigner-Seitz radii
   RWIGS  =   1.50
  virtual crystal weights 
   VCA    =   1.00
   NELECT =     176.0000    total number of electrons
   NUPDOWN=      -1.0000    fix difference up-down

 DOS related values:
   EMIN   =  10.00;   EMAX   =-10.00  energy-range for DOS
   EFERMI =   0.00
   ISMEAR =     1;   SIGMA  =   0.20  broadening in eV -4-tet -1-fermi 0-gaus

 Electronic relaxation 2 (details)
   IALGO  =     38    algorithm
   LDIAG  =      T    sub-space diagonalisation (order eigenvalues)
   LSUBROT=      F    optimize rotation matrix (better conditioning)
   TURBO    =      0    0=normal 1=particle mesh
   IRESTART =      0    0=no restart 2=restart with 2 vectors
   NREBOOT  =      0    no. of reboots
   NMIN     =      0    reboot dimension
   EREF     =   0.00    reference energy to select bands
   IMIX   =      4    mixing-type and parameters
     AMIX     =   0.40;   BMIX     =  1.00
     AMIX_MAG =   1.60;   BMIX_MAG =  1.00
     AMIN     =   0.10
     WC   =   100.;   INIMIX=   1;  MIXPRE=   1;  MAXMIX= -45

 Intra band minimization:
   WEIMIN = 0.0000     energy-eigenvalue tresh-hold
   EBREAK =  0.23E-06  absolut break condition
   DEPER  =   0.30     relativ break condition  

   TIME   =   0.40     timestep for ELM

  volume/ion in A,a.u.               =      38.59       260.43
  Fermi-wavevector in a.u.,A,eV,Ry     =   1.077390  2.035971 15.793213  1.160768
  Thomas-Fermi vector in A             =   2.213300
 
 Write flags
   LWAVE        =      F    write WAVECAR
   LDOWNSAMPLE  =      F    k-point downsampling of WAVECAR
   LCHARG       =      F    write CHGCAR
   LVTOT        =      F    write LOCPOT, total local potential
   LVHAR        =      F    write LOCPOT, Hartree potential only
   LELF         =      F    write electronic localiz. function (ELF)
   LORBIT       =      0    0 simple, 1 ext, 2 COOP (PROOUT), +10 PAW based schemes


 Dipole corrections
   LMONO  =      F    monopole corrections only (constant potential shift)
   LDIPOL =      F    correct potential (dipole corrections)
   IDIPOL =      0    1-x, 2-y, 3-z, 4-all directions 
   EPSILON=  1.0000000 bulk dielectric constant

 Exchange correlation treatment:
   GGA     =    RP    GGA type
   LEXCH   =     9    internal setting for exchange type
   VOSKOWN=      0    Vosko Wilk Nusair interpolation
   LHFCALC =     F    Hartree Fock is set to
   LHFONE  =     F    Hartree Fock one center treatment
   AEXX    =    0.0000 exact exchange contribution

 Linear response parameters
   LEPSILON=     F    determine dielectric tensor
   LRPA    =     F    only Hartree local field effects (RPA)
   LNABLA  =     F    use nabla operator in PAW spheres
   LVEL    =     F    velocity operator in full k-point grid
   LINTERFAST=   F  fast interpolation
   KINTER  =     0    interpolate to denser k-point grid
   CSHIFT  =0.1000    complex shift for real part using Kramers Kronig
   OMEGAMAX=  -1.0    maximum frequency
   DEG_THRESHOLD= 0.2000000E-02 threshold for treating states as degnerate
   RTIME   =   -0.100 relaxation time in fs
  (WPLASMAI=    0.000 imaginary part of plasma frequency in eV, 0.658/RTIME)
   DFIELD  = 0.0000000 0.0000000 0.0000000 field for delta impulse in time
 
 Orbital magnetization related:
   ORBITALMAG=     F  switch on orbital magnetization
   LCHIMAG   =     F  perturbation theory with respect to B field
   DQ        =  0.001000  dq finite difference perturbation B field
   LLRAUG    =     F  two centre corrections for induced B field



--------------------------------------------------------------------------------------------------------


 Static calculation
 charge density and potential will be updated during run
 non-spin polarized calculation
 Variant of blocked Davidson
 Davidson routine will perform the subspace rotation
 perform sub-space diagonalisation
    after iterative eigenvector-optimisation
 modified Broyden-mixing scheme, WC =      100.0
 initial mixing is a Kerker type mixing with AMIX =  0.4000 and BMIX =      1.0000
 Hartree-type preconditioning will be used
 using additional bands           20
 real space projection scheme for non local part
 use partial core corrections
 calculate Harris-corrections to forces 
   (improved forces if not selfconsistent)
 use gradient corrections 
 use of overlap-Matrix (Vanderbilt PP)
 Methfessel and Paxton  Order N= 1 SIGMA  =   0.20


--------------------------------------------------------------------------------------------------------


  energy-cutoff  :      350.00
  volume of cell :      617.47
      direct lattice vectors                 reciprocal lattice vectors
     5.199963631  0.000000000  0.000000000     0.192309037 -0.111029674  0.000000000
     2.599981815  4.503300603  0.000000000     0.000000000  0.222059349  0.000000000
     0.000000000  0.000000000 26.368628788     0.000000000  0.000000000  0.037923853

  length of vectors
     5.199963631  5.199963631 26.368628788     0.222059349  0.222059349  0.037923853


 
 k-points in units of 2pi/SCALE and weight: KPOINTS created by Atomic Simulation Env
   0.00000000  0.00000000  0.00000000       0.040
   0.03846181 -0.02220593  0.00000000       0.080
   0.07692361 -0.04441187  0.00000000       0.080
   0.00000000  0.04441187  0.00000000       0.080
   0.03846181  0.02220593  0.00000000       0.080
   0.07692361  0.00000000  0.00000000       0.080
  -0.07692361  0.08882374  0.00000000       0.080
  -0.03846181  0.06661780  0.00000000       0.080
   0.00000000  0.08882374  0.00000000       0.080
   0.03846181  0.06661780  0.00000000       0.080
   0.07692361  0.04441187  0.00000000       0.080
  -0.07692361  0.13323561  0.00000000       0.080
  -0.03846181  0.11102967  0.00000000       0.080
 
 k-points in reciprocal lattice and weights: KPOINTS created by Atomic Simulation Env
   0.00000000  0.00000000  0.00000000       0.040
   0.20000000 -0.00000000  0.00000000       0.080
   0.40000000 -0.00000000  0.00000000       0.080
   0.00000000  0.20000000  0.00000000       0.080
   0.20000000  0.20000000  0.00000000       0.080
   0.40000000  0.20000000  0.00000000       0.080
  -0.40000000  0.20000000  0.00000000       0.080
  -0.20000000  0.20000000  0.00000000       0.080
   0.00000000  0.40000000  0.00000000       0.080
   0.20000000  0.40000000  0.00000000       0.080
   0.40000000  0.40000000  0.00000000       0.080
  -0.40000000  0.40000000  0.00000000       0.080
  -0.20000000  0.40000000  0.00000000       0.080
 
 position of ions in fractional coordinates (direct lattice) 
   0.00000000  0.00000000  0.37923853
   0.50000000  0.00000000  0.37923853
   0.00000000  0.50000000  0.37923853
   0.50000000  0.50000000  0.37923853
   0.16666667  0.16666667  0.45974618
   0.66666667  0.16666667  0.45974618
   0.16666667  0.66666667  0.45974618
   0.66666667  0.66666667  0.45974618
   0.83333593  0.33331957  0.53871077
   0.33333543  0.33332721  0.53870982
   0.83333242  0.83334122  0.53871090
   0.33332267  0.83333900  0.53870958
   0.99999564  0.00000402  0.61779825
   0.50000444  0.00000441  0.61779738
   0.99999949  0.50000430  0.61780048
   0.50000384  0.49999738  0.61779789
 
 position of ions in cartesian coordinates  (Angst):
   0.00000000  0.00000000 10.00000000
   2.59998182  0.00000000 10.00000000
   1.29999091  2.25165030 10.00000000
   3.89997272  2.25165030 10.00000000
   1.29999091  0.75055010 12.12287626
   3.89997272  0.75055010 12.12287626
   2.59998182  3.00220040 12.12287626
   5.19996363  3.00220040 12.12287626
   5.19994136  1.50103823 14.20506431
   2.59997682  1.50107265 14.20503932
   6.49997027  3.75278601 14.20506767
   3.89993200  3.75277601 14.20503298
   5.19995140  0.00001809 16.29049281
   2.60001634  0.00001984 16.29046970
   6.49996307  2.25166968 16.29055161
   3.89998587  2.25163850 16.29048325
 


--------------------------------------------------------------------------------------------------------


 k-point  1 :   0.0000 0.0000 0.0000  plane waves:    9087
 k-point  2 :   0.2000-0.0000 0.0000  plane waves:    9166
 k-point  3 :   0.4000-0.0000 0.0000  plane waves:    9194
 k-point  4 :   0.0000 0.2000 0.0000  plane waves:    9166
 k-point  5 :   0.2000 0.2000 0.0000  plane waves:    9166
 k-point  6 :   0.4000 0.2000 0.0000  plane waves:    9184
 k-point  7 :  -0.4000 0.2000 0.0000  plane waves:    9208
 k-point  8 :  -0.2000 0.2000 0.0000  plane waves:    9184
 k-point  9 :   0.0000 0.4000 0.0000  plane waves:    9194
 k-point 10 :   0.2000 0.4000 0.0000  plane waves:    9184
 k-point 11 :   0.4000 0.4000 0.0000  plane waves:    9194
 k-point 12 :  -0.4000 0.4000 0.0000  plane waves:    9208
 k-point 13 :  -0.2000 0.4000 0.0000  plane waves:    9208

 maximum and minimum number of plane-waves per node :      2315     2241

 maximum number of plane-waves:      9208
 maximum index in each direction: 
   IXMAX=    8   IYMAX=    7   IZMAX=   40
   IXMIN=   -8   IYMIN=   -8   IZMIN=  -40


 real space projection operators:
  total allocation   :       4921.88 KBytes
  max/ min on nodes  :       1253.25       1220.62


 parallel 3D FFT for wavefunctions:
    minimum data exchange during FFTs selected (reduces bandwidth)
 parallel 3D FFT for charge:
    minimum data exchange during FFTs selected (reduces bandwidth)


 total amount of memory used by VASP MPI-rank0    49813. kBytes
=======================================================================

   base      :      30000. kBytes
   nonlr-proj:       2120. kBytes
   fftplans  :       1786. kBytes
   grid      :       2479. kBytes
   one-center:         62. kBytes
   wavefun   :      13366. kBytes
 
     INWAV:  cpu time    0.0000: real time    0.0001
 Broyden mixing: mesh for mixing (old mesh)
   NGX = 15   NGY = 15   NGZ = 81
  (NGX  = 48   NGY  = 48   NGZ  =252)
  gives a total of  18225 points

 initial charge density was supplied:
 charge density of overlapping atoms calculated
 number of electron     176.0000000 magnetization 
 keeping initial charge density in first step


--------------------------------------------------------------------------------------------------------


 Maximum index for non-local projection operator          546
 Maximum index for augmentation-charges          248 (set IRDMAX)


--------------------------------------------------------------------------------------------------------


 First call to EWALD:  gamma=   0.208
 Maximum number of real-space cells 5x 5x 1
 Maximum number of reciprocal cells 2x 2x 7

    FEWALD:  cpu time    0.0117: real time    0.0117


--------------------------------------- Iteration      1(   1)  ---------------------------------------


    POTLOK:  cpu time    0.0693: real time    0.2040
    SETDIJ:  cpu time    0.0093: real time    0.0298
     EDDAV:  cpu time   12.6096: real time   21.1466
       DOS:  cpu time    0.0019: real time    0.0034
    --------------------------------------------
      LOOP:  cpu time   12.6900: real time   21.3838

 eigenvalue-minimisations  :  2808
 total energy-change (2. order) : 0.1448915E+04  (-0.5922308E+04)
 number of electron     176.0000000 magnetization 
 augmentation part      176.0000000 magnetization 

 Free energy of the ion-electron system (eV)
  ---------------------------------------------------
  alpha Z        PSCENC =       303.20293321
  Ewald energy   TEWEN  =    108504.60098962
  -Hartree energ DENC   =   -129689.11857034
  -exchange      EXHF   =         0.00000000
  -V(xc)+E(xc)   XCENC  =       717.90666472
  PAW double counting   =     19663.77997115   -21341.09948072
  entropy T*S    EENTRO =        -0.00545334
  eigenvalues    EBANDS =      1051.08275298
  atomic energy  EATOM  =     22238.56510406
  Solvation  Ediel_sol  =         0.00000000
  ---------------------------------------------------
  free energy    TOTEN  =      1448.91491133 eV

  energy without entropy =     1448.92036467  energy(sigma->0) =     1448.91672911


--------------------------------------------------------------------------------------------------------




--------------------------------------- Iteration      1(   2)  ---------------------------------------


     EDDAV:  cpu time    2.1673: real time    2.1693
       DOS:  cpu time    0.0023: real time    0.0028
    --------------------------------------------
      LOOP:  cpu time    2.1695: real time    2.1721

 eigenvalue-minimisations  :  2808
 total energy-change (2. order) :-0.1360560E+04  (-0.1310126E+04)
 number of electron     176.0000000 magnetization 
 augmentation part      176.0000000 magnetization 

 Free energy of the ion-electron system (eV)
  ---------------------------------------------------
  alpha Z        PSCENC =       303.20293321
  Ewald energy   TEWEN  =    108504.60098962
  -Hartree energ DENC   =   -129689.11857034
  -exchange      EXHF   =         0.00000000
  -V(xc)+E(xc)   XCENC  =       717.90666472
  PAW double counting   =     19663.77997115   -21341.09948072
  entropy T*S    EENTRO =        -0.00654886
  eigenvalues    EBANDS =      -309.47597773
  atomic energy  EATOM  =     22238.56510406
  Solvation  Ediel_sol  =         0.00000000
  ---------------------------------------------------
  free energy    TOTEN  =        88.35508511 eV

  energy without entropy =       88.36163397  energy(sigma->0) =       88.35726806


--------------------------------------------------------------------------------------------------------




--------------------------------------- Iteration      1(   3)  ---------------------------------------


     EDDAV:  cpu time    2.2470: real time    2.2478
       DOS:  cpu time    0.0024: real time    0.0024
    --------------------------------------------
      LOOP:  cpu time    2.2494: real time    2.2502

 eigenvalue-minimisations  :  2960
 total energy-change (2. order) :-0.1415413E+03  (-0.1299506E+03)
 number of electron     176.0000000 magnetization 
 augmentation part      176.0000000 magnetization 

 Free energy of the ion-electron system (eV)
  ---------------------------------------------------
  alpha Z        PSCENC =       303.20293321
  Ewald energy   TEWEN  =    108504.60098962
  -Hartree energ DENC   =   -129689.11857034
  -exchange      EXHF   =         0.00000000
  -V(xc)+E(xc)   XCENC  =       717.90666472
  PAW double counting   =     19663.77997115   -21341.09948072
  entropy T*S    EENTRO =        -0.04115836
  eigenvalues    EBANDS =      -450.98262071
  atomic energy  EATOM  =     22238.56510406
  Solvation  Ediel_sol  =         0.00000000
  ---------------------------------------------------
  free energy    TOTEN  =       -53.18616737 eV

  energy without entropy =      -53.14500901  energy(sigma->0) =      -53.17244792


--------------------------------------------------------------------------------------------------------




--------------------------------------- Iteration      1(   4)  ---------------------------------------


     EDDAV:  cpu time    2.2405: real time    2.2407
       DOS:  cpu time    0.0018: real time    0.0018
    --------------------------------------------
      LOOP:  cpu time    2.2423: real time    2.2425

 eigenvalue-minimisations  :  3056
 total energy-change (2. order) :-0.6514877E+01  (-0.6379499E+01)
 number of electron     176.0000000 magnetization 
 augmentation part      176.0000000 magnetization 

 Free energy of the ion-electron system (eV)
  ---------------------------------------------------
  alpha Z        PSCENC =       303.20293321
  Ewald energy   TEWEN  =    108504.60098962
  -Hartree energ DENC   =   -129689.11857034
  -exchange      EXHF   =         0.00000000
  -V(xc)+E(xc)   XCENC  =       717.90666472
  PAW double counting   =     19663.77997115   -21341.09948072
  entropy T*S    EENTRO =        -0.05106314
  eigenvalues    EBANDS =      -457.48759263
  atomic energy  EATOM  =     22238.56510406
  Solvation  Ediel_sol  =         0.00000000
  ---------------------------------------------------
  free energy    TOTEN  =       -59.70104407 eV

  energy without entropy =      -59.64998093  energy(sigma->0) =      -59.68402302


--------------------------------------------------------------------------------------------------------




--------------------------------------- Iteration      1(   5)  ---------------------------------------


     EDDAV:  cpu time    2.5868: real time    2.5868
       DOS:  cpu time    0.0024: real time    0.0024
    CHARGE:  cpu time    0.1482: real time    0.1482
    MIXING:  cpu time    0.0012: real time    0.0033
    --------------------------------------------
      LOOP:  cpu time    2.7385: real time    2.7407

 eigenvalue-minimisations  :  3296
 total energy-change (2. order) :-0.1798380E+00  (-0.1792001E+00)
 number of electron     176.0000894 magnetization 
 augmentation part      104.9787066 magnetization 

 Broyden mixing:
  rms(total) = 0.27387E+01    rms(broyden)= 0.27382E+01
  rms(prec ) = 0.28572E+01
  weight for this iteration     100.00

 Free energy of the ion-electron system (eV)
  ---------------------------------------------------
  alpha Z        PSCENC =       303.20293321
  Ewald energy   TEWEN  =    108504.60098962
  -Hartree energ DENC   =   -129689.11857034
  -exchange      EXHF   =         0.00000000
  -V(xc)+E(xc)   XCENC  =       717.90666472
  PAW double counting   =     19663.77997115   -21341.09948072
  entropy T*S    EENTRO =        -0.05154219
  eigenvalues    EBANDS =      -457.66695153
  atomic energy  EATOM  =     22238.56510406
  Solvation  Ediel_sol  =         0.00000000
  ---------------------------------------------------
  free energy    TOTEN  =       -59.88088202 eV

  energy without entropy =      -59.82933983  energy(sigma->0) =      -59.86370129


--------------------------------------------------------------------------------------------------------




--------------------------------------- Iteration      1(   6)  ---------------------------------------


    POTLOK:  cpu time    0.0193: real time    0.0194
    SETDIJ:  cpu time    0.0032: real time    0.0032
     EDDAV:  cpu time    2.3383: real time    2.3383
       DOS:  cpu time    0.0024: real time    0.0024
    CHARGE:  cpu time    0.1441: real time    0.1442
    MIXING:  cpu time    0.0011: real time    0.0011
    --------------------------------------------
      LOOP:  cpu time    2.5085: real time    2.5086

 eigenvalue-minimisations  :  3120
 total energy-change (2. order) : 0.5478406E+01  (-0.1371387E+02)
 number of electron     176.0001017 magnetization 
 augmentation part      117.3419437 magnetization 

 Broyden mixing:
  rms(total) = 0.15617E+01    rms(broyden)= 0.15611E+01
  rms(prec ) = 0.16246E+01
  weight for this iteration     100.00

 eigenvalues of (default mixing * dielectric matrix)
  average eigenvalue GAMMA=   0.6391
  0.6391

 Free energy of the ion-electron system (eV)
  ---------------------------------------------------
  alpha Z        PSCENC =       303.20293321
  Ewald energy   TEWEN  =    108504.60098962
  -Hartree energ DENC   =   -129277.79363341
  -exchange      EXHF   =         0.00000000
  -V(xc)+E(xc)   XCENC  =       698.36108013
  PAW double counting   =     19766.06742226   -21363.51682246
  entropy T*S    EENTRO =        -0.01679129
  eigenvalues    EBANDS =      -923.87275855
  atomic energy  EATOM  =     22238.56510406
  Solvation  Ediel_sol  =         0.00000000
  ---------------------------------------------------
  free energy    TOTEN  =       -54.40247642 eV

  energy without entropy =      -54.38568513  energy(sigma->0) =      -54.39687932


--------------------------------------------------------------------------------------------------------




--------------------------------------- Iteration      1(   7)  ---------------------------------------


    POTLOK:  cpu time    0.0181: real time    0.0181
    SETDIJ:  cpu time    0.0030: real time    0.0030
     EDDAV:  cpu time    2.4650: real time    2.4653
       DOS:  cpu time    0.0023: real time    0.0023
    CHARGE:  cpu time    0.1599: real time    0.1599
    MIXING:  cpu time    0.0012: real time    0.0012
    --------------------------------------------
      LOOP:  cpu time    2.6494: real time    2.6498

 eigenvalue-minimisations  :  3316
 total energy-change (2. order) : 0.5518982E+01  (-0.2731232E+01)
 number of electron     176.0000974 magnetization 
 augmentation part      112.9065152 magnetization 

 Broyden mixing:
  rms(total) = 0.17594E+00    rms(broyden)= 0.17548E+00
  rms(prec ) = 0.19057E+00
  weight for this iteration     100.00

 eigenvalues of (default mixing * dielectric matrix)
  average eigenvalue GAMMA=   0.8603
  1.0784  0.6421

 Free energy of the ion-electron system (eV)
  ---------------------------------------------------
  alpha Z        PSCENC =       303.20293321
  Ewald energy   TEWEN  =    108504.60098962
  -Hartree energ DENC   =   -129462.22936526
  -exchange      EXHF   =         0.00000000
  -V(xc)+E(xc)   XCENC  =       704.90149453
  PAW double counting   =     20117.35698176   -21784.51859400
  entropy T*S    EENTRO =         0.00838744
  eigenvalues    EBANDS =      -670.77142583
  atomic energy  EATOM  =     22238.56510406
  Solvation  Ediel_sol  =         0.00000000
  ---------------------------------------------------
  free energy    TOTEN  =       -48.88349448 eV

  energy without entropy =      -48.89188191  energy(sigma->0) =      -48.88629029


--------------------------------------------------------------------------------------------------------




--------------------------------------- Iteration      1(   8)  ---------------------------------------


    POTLOK:  cpu time    0.0185: real time    0.0185
    SETDIJ:  cpu time    0.0032: real time    0.0032
     EDDAV:  cpu time    2.6230: real time    2.6231
       DOS:  cpu time    0.0024: real time    0.0024
    CHARGE:  cpu time    0.1475: real time    0.1475
    MIXING:  cpu time    0.0012: real time    0.0012
    --------------------------------------------
      LOOP:  cpu time    2.7956: real time    2.7958

 eigenvalue-minimisations  :  3744
 total energy-change (2. order) :-0.7461061E-01  (-0.1422868E+00)
 number of electron     176.0000968 magnetization 
 augmentation part      112.3330048 magnetization 

 Broyden mixing:
  rms(total) = 0.28290E+00    rms(broyden)= 0.28284E+00
  rms(prec ) = 0.34447E+00
  weight for this iteration     100.00

 eigenvalues of (default mixing * dielectric matrix)
  average eigenvalue GAMMA=   0.8761
  1.6364  0.6131  0.3788

 Free energy of the ion-electron system (eV)
  ---------------------------------------------------
  alpha Z        PSCENC =       303.20293321
  Ewald energy   TEWEN  =    108504.60098962
  -Hartree energ DENC   =   -129481.26277600
  -exchange      EXHF   =         0.00000000
  -V(xc)+E(xc)   XCENC  =       704.73508353
  PAW double counting   =     20393.94086918   -22083.78856260
  entropy T*S    EENTRO =         0.00138139
  eigenvalues    EBANDS =      -628.95312748
  atomic energy  EATOM  =     22238.56510406
  Solvation  Ediel_sol  =         0.00000000
  ---------------------------------------------------
  free energy    TOTEN  =       -48.95810509 eV

  energy without entropy =      -48.95948648  energy(sigma->0) =      -48.95856555


--------------------------------------------------------------------------------------------------------




--------------------------------------- Iteration      1(   9)  ---------------------------------------


    POTLOK:  cpu time    0.0194: real time    0.0195
    SETDIJ:  cpu time    0.0030: real time    0.0030
     EDDAV:  cpu time    3.7720: real time    4.1742
       DOS:  cpu time    0.0046: real time    0.0046
    CHARGE:  cpu time    0.3049: real time    0.5008
    MIXING:  cpu time    0.0110: real time    0.0110
    --------------------------------------------
      LOOP:  cpu time    4.1149: real time    4.7130

 eigenvalue-minimisations  :  3344
 total energy-change (2. order) : 0.6325449E-01  (-0.4121682E-01)
 number of electron     176.0000969 magnetization 
 augmentation part      112.2737650 magnetization 

 Broyden mixing:
  rms(total) = 0.18547E+00    rms(broyden)= 0.18541E+00
  rms(prec ) = 0.23480E+00
  weight for this iteration     100.00

 eigenvalues of (default mixing * dielectric matrix)
  average eigenvalue GAMMA=   0.9171
  2.1622  0.6342  0.6342  0.2379

 Free energy of the ion-electron system (eV)
  ---------------------------------------------------
  alpha Z        PSCENC =       303.20293321
  Ewald energy   TEWEN  =    108504.60098962
  -Hartree energ DENC   =   -129476.60914535
  -exchange      EXHF   =         0.00000000
  -V(xc)+E(xc)   XCENC  =       704.40776611
  PAW double counting   =     20496.18741916   -22194.02927837
  entropy T*S    EENTRO =         0.00329348
  eigenvalues    EBANDS =      -625.22393250
  atomic energy  EATOM  =     22238.56510406
  Solvation  Ediel_sol  =         0.00000000
  ---------------------------------------------------
  free energy    TOTEN  =       -48.89485060 eV

  energy without entropy =      -48.89814408  energy(sigma->0) =      -48.89594842


--------------------------------------------------------------------------------------------------------




--------------------------------------- Iteration      1(  10)  ---------------------------------------


    POTLOK:  cpu time    0.0563: real time    0.1014
    SETDIJ:  cpu time    0.0081: real time    0.0334
     EDDAV:  cpu time   20.4698: real time   34.4011
       DOS:  cpu time    0.0028: real time    0.0055
    CHARGE:  cpu time    0.3245: real time    0.5238
    MIXING:  cpu time    0.0045: real time    0.0272
    --------------------------------------------
      LOOP:  cpu time   20.8659: real time   35.0923

 eigenvalue-minimisations  :  4436
 total energy-change (2. order) : 0.4857863E-01  (-0.1297514E-01)
 number of electron     176.0000969 magnetization 
 augmentation part      112.3390180 magnetization 

 Broyden mixing:
  rms(total) = 0.13426E+00    rms(broyden)= 0.13424E+00
  rms(prec ) = 0.14918E+00
  weight for this iteration     100.00

 eigenvalues of (default mixing * dielectric matrix)
  average eigenvalue GAMMA=   0.9125
  2.4377  0.8235  0.7433  0.3684  0.1893

 Free energy of the ion-electron system (eV)
  ---------------------------------------------------
  alpha Z        PSCENC =       303.20293321
  Ewald energy   TEWEN  =    108504.60098962
  -Hartree energ DENC   =   -129467.65864760
  -exchange      EXHF   =         0.00000000
  -V(xc)+E(xc)   XCENC  =       703.87623069
  PAW double counting   =     20580.28975942   -22284.09075294
  entropy T*S    EENTRO =         0.00378173
  eigenvalues    EBANDS =      -627.63567016
  atomic energy  EATOM  =     22238.56510406
  Solvation  Ediel_sol  =         0.00000000
  ---------------------------------------------------
  free energy    TOTEN  =       -48.84627196 eV

  energy without entropy =      -48.85005370  energy(sigma->0) =      -48.84753254


--------------------------------------------------------------------------------------------------------




--------------------------------------- Iteration      1(  11)  ---------------------------------------


    POTLOK:  cpu time    0.0410: real time    0.1103
    SETDIJ:  cpu time    0.0315: real time    0.0712
     EDDAV:  cpu time   14.8167: real time   25.0701
       DOS:  cpu time    0.0025: real time    0.0053
    CHARGE:  cpu time    0.2984: real time    0.5969
    MIXING:  cpu time    0.0082: real time    0.0168
    --------------------------------------------
      LOOP:  cpu time   15.1984: real time   25.8706

 eigenvalue-minimisations  :  3516
 total energy-change (2. order) : 0.2895625E-01  (-0.1188439E-01)
 number of electron     176.0000971 magnetization 
 augmentation part      112.5316618 magnetization 

 Broyden mixing:
  rms(total) = 0.32053E-01    rms(broyden)= 0.32016E-01
  rms(prec ) = 0.40204E-01
  weight for this iteration     100.00

 eigenvalues of (default mixing * dielectric matrix)
  average eigenvalue GAMMA=   0.9244
  2.3582  1.0883  0.8274  0.7020  0.3691  0.2010

 Free energy of the ion-electron system (eV)
  ---------------------------------------------------
  alpha Z        PSCENC =       303.20293321
  Ewald energy   TEWEN  =    108504.60098962
  -Hartree energ DENC   =   -129461.60447043
  -exchange      EXHF   =         0.00000000
  -V(xc)+E(xc)   XCENC  =       703.18557343
  PAW double counting   =     20644.98264354   -22352.62574543
  entropy T*S    EENTRO =         0.00338563
  eigenvalues    EBANDS =      -629.12772934
  atomic energy  EATOM  =     22238.56510406
  Solvation  Ediel_sol  =         0.00000000
  ---------------------------------------------------
  free energy    TOTEN  =       -48.81731571 eV

  energy without entropy =      -48.82070134  energy(sigma->0) =      -48.81844426


--------------------------------------------------------------------------------------------------------




--------------------------------------- Iteration      1(  12)  ---------------------------------------


    POTLOK:  cpu time    0.0348: real time    0.0696
    SETDIJ:  cpu time    0.0104: real time    0.0212
     EDDAV:  cpu time   10.2153: real time   17.8684
       DOS:  cpu time    0.0024: real time    0.0042
    CHARGE:  cpu time    0.2751: real time    0.5760
    MIXING:  cpu time    0.0670: real time    0.1787
    --------------------------------------------
      LOOP:  cpu time   10.6050: real time   18.7181

 eigenvalue-minimisations  :  3204
 total energy-change (2. order) :-0.2522902E-03  (-0.4606462E-02)
 number of electron     176.0000972 magnetization 
 augmentation part      112.6142610 magnetization 

 Broyden mixing:
  rms(total) = 0.22033E-01    rms(broyden)= 0.22022E-01
  rms(prec ) = 0.25339E-01
  weight for this iteration     100.00

 eigenvalues of (default mixing * dielectric matrix)
  average eigenvalue GAMMA=   0.9871
  2.3401  1.8469  0.7740  0.7740  0.5939  0.3757  0.2054

 Free energy of the ion-electron system (eV)
  ---------------------------------------------------
  alpha Z        PSCENC =       303.20293321
  Ewald energy   TEWEN  =    108504.60098962
  -Hartree energ DENC   =   -129462.40020863
  -exchange      EXHF   =         0.00000000
  -V(xc)+E(xc)   XCENC  =       703.09443829
  PAW double counting   =     20646.33372266   -22353.97097123
  entropy T*S    EENTRO =         0.00399840
  eigenvalues    EBANDS =      -628.24757438
  atomic energy  EATOM  =     22238.56510406
  Solvation  Ediel_sol  =         0.00000000
  ---------------------------------------------------
  free energy    TOTEN  =       -48.81756800 eV

  energy without entropy =      -48.82156640  energy(sigma->0) =      -48.81890080


--------------------------------------------------------------------------------------------------------




--------------------------------------- Iteration      1(  13)  ---------------------------------------


    POTLOK:  cpu time    0.0607: real time    0.1342
    SETDIJ:  cpu time    0.0801: real time    0.0960
     EDDAV:  cpu time   14.0289: real time   24.2113
       DOS:  cpu time    0.0096: real time    0.0247
    CHARGE:  cpu time    0.3474: real time    0.5221
    MIXING:  cpu time    0.0036: real time    0.0076
    --------------------------------------------
      LOOP:  cpu time   14.5303: real time   24.9958

 eigenvalue-minimisations  :  3088
 total energy-change (2. order) : 0.1315686E-02  (-0.2041909E-02)
 number of electron     176.0000972 magnetization 
 augmentation part      112.6175216 magnetization 

 Broyden mixing:
  rms(total) = 0.19395E-01    rms(broyden)= 0.19388E-01
  rms(prec ) = 0.21249E-01
  weight for this iteration     100.00

 eigenvalues of (default mixing * dielectric matrix)
  average eigenvalue GAMMA=   0.9939
  2.4580  2.2352  0.7767  0.7767  0.5664  0.5664  0.2050  0.3667

 Free energy of the ion-electron system (eV)
  ---------------------------------------------------
  alpha Z        PSCENC =       303.20293321
  Ewald energy   TEWEN  =    108504.60098962
  -Hartree energ DENC   =   -129467.78446878
  -exchange      EXHF   =         0.00000000
  -V(xc)+E(xc)   XCENC  =       703.11013453
  PAW double counting   =     20638.49801210   -22346.38469162
  entropy T*S    EENTRO =         0.00487939
  eigenvalues    EBANDS =      -622.62914482
  atomic energy  EATOM  =     22238.56510406
  Solvation  Ediel_sol  =         0.00000000
  ---------------------------------------------------
  free energy    TOTEN  =       -48.81625232 eV

  energy without entropy =      -48.82113170  energy(sigma->0) =      -48.81787878


--------------------------------------------------------------------------------------------------------




--------------------------------------- Iteration      1(  14)  ---------------------------------------


    POTLOK:  cpu time    0.0375: real time    0.0828
    SETDIJ:  cpu time    0.0180: real time    0.0226
     EDDAV:  cpu time   17.2029: real time   25.9056
       DOS:  cpu time    0.0035: real time    0.0069
    CHARGE:  cpu time    0.3863: real time    0.5779
    MIXING:  cpu time    0.0037: real time    0.0040
    --------------------------------------------
      LOOP:  cpu time   17.6518: real time   26.5998

 eigenvalue-minimisations  :  3356
 total energy-change (2. order) : 0.6406241E-03  (-0.3030238E-03)
 number of electron     176.0000972 magnetization 
 augmentation part      112.6135390 magnetization 

 Broyden mixing:
  rms(total) = 0.16191E-01    rms(broyden)= 0.16190E-01
  rms(prec ) = 0.17529E-01
  weight for this iteration     100.00

 eigenvalues of (default mixing * dielectric matrix)
  average eigenvalue GAMMA=   0.9725
  2.2769  2.2769  0.9570  0.7980  0.7980  0.6742  0.2049  0.3833  0.3833

 Free energy of the ion-electron system (eV)
  ---------------------------------------------------
  alpha Z        PSCENC =       303.20293321
  Ewald energy   TEWEN  =    108504.60098962
  -Hartree energ DENC   =   -129470.57493588
  -exchange      EXHF   =         0.00000000
  -V(xc)+E(xc)   XCENC  =       703.12537671
  PAW double counting   =     20636.07773376   -22343.93605262
  entropy T*S    EENTRO =         0.00467370
  eigenvalues    EBANDS =      -619.88143425
  atomic energy  EATOM  =     22238.56510406
  Solvation  Ediel_sol  =         0.00000000
  ---------------------------------------------------
  free energy    TOTEN  =       -48.81561169 eV

  energy without entropy =      -48.82028539  energy(sigma->0) =      -48.81716959


--------------------------------------------------------------------------------------------------------




--------------------------------------- Iteration      1(  15)  ---------------------------------------


    POTLOK:  cpu time    0.0412: real time    0.1156
    SETDIJ:  cpu time    0.0166: real time    0.0335
     EDDAV:  cpu time   15.0946: real time   22.4993
       DOS:  cpu time    0.0024: real time    0.0064
    CHARGE:  cpu time    0.4120: real time    0.8125
    MIXING:  cpu time    0.0232: real time    0.0727
    --------------------------------------------
      LOOP:  cpu time   15.5901: real time   23.5399

 eigenvalue-minimisations  :  3040
 total energy-change (2. order) : 0.4583198E-03  (-0.2336843E-03)
 number of electron     176.0000972 magnetization 
 augmentation part      112.6086260 magnetization 

 Broyden mixing:
  rms(total) = 0.41218E-02    rms(broyden)= 0.41176E-02
  rms(prec ) = 0.58302E-02
  weight for this iteration     100.00

 eigenvalues of (default mixing * dielectric matrix)
  average eigenvalue GAMMA=   0.9563
  2.3325  2.3325  0.8818  0.8818  0.7758  0.7758  0.6143  0.2049  0.3738  0.3898

 Free energy of the ion-electron system (eV)
  ---------------------------------------------------
  alpha Z        PSCENC =       303.20293321
  Ewald energy   TEWEN  =    108504.60098962
  -Hartree energ DENC   =   -129472.73907062
  -exchange      EXHF   =         0.00000000
  -V(xc)+E(xc)   XCENC  =       703.13771767
  PAW double counting   =     20635.81836018   -22343.59832924
  entropy T*S    EENTRO =         0.00425773
  eigenvalues    EBANDS =      -617.80711598
  atomic energy  EATOM  =     22238.56510406
  Solvation  Ediel_sol  =         0.00000000
  ---------------------------------------------------
  free energy    TOTEN  =       -48.81515337 eV

  energy without entropy =      -48.81941110  energy(sigma->0) =      -48.81657261


--------------------------------------------------------------------------------------------------------




--------------------------------------- Iteration      1(  16)  ---------------------------------------


    POTLOK:  cpu time    0.0606: real time    0.1207
    SETDIJ:  cpu time    0.0092: real time    0.0164
     EDDAV:  cpu time   11.7883: real time   19.9430
       DOS:  cpu time    0.0023: real time    0.0087
    --------------------------------------------
      LOOP:  cpu time   11.8604: real time   20.0888

 eigenvalue-minimisations  :  2848
 total energy-change (2. order) : 0.9393727E-04  (-0.5447122E-04)
 number of electron     176.0000972 magnetization 
 augmentation part      112.6086260 magnetization 

 Free energy of the ion-electron system (eV)
  ---------------------------------------------------
  alpha Z        PSCENC =       303.20293321
  Ewald energy   TEWEN  =    108504.60098962
  -Hartree energ DENC   =   -129475.55036463
  -exchange      EXHF   =         0.00000000
  -V(xc)+E(xc)   XCENC  =       703.11951388
  PAW double counting   =     20636.17824361   -22344.11568234
  entropy T*S    EENTRO =         0.00438457
  eigenvalues    EBANDS =      -614.82018142
  atomic energy  EATOM  =     22238.56510406
  Solvation  Ediel_sol  =         0.00000000
  ---------------------------------------------------
  free energy    TOTEN  =       -48.81505943 eV

  energy without entropy =      -48.81944401  energy(sigma->0) =      -48.81652096


--------------------------------------------------------------------------------------------------------




 average (electrostatic) potential at core
  the test charge radii are     0.9430
  (the norm of the test charge is              1.0000)
       1 -71.9121       2 -71.9129       3 -71.9135       4 -71.9132       5 -72.0580
       6 -72.0560       7 -72.0561       8 -72.0565       9 -72.0699      10 -72.0699
      11 -72.0718      12 -72.0709      13 -71.9264      14 -71.9264      15 -71.9268
      16 -71.9269
 
 
 
 E-fermi :  -0.7146     XC(G=0):  -4.7649     alpha+bet : -4.1082


 k-point     1 :       0.0000    0.0000    0.0000
  band No.  band energies     occupation 
      1      -9.3230      2.00000
      2      -8.0871      2.00000
      3      -6.4733      2.00000
      4      -5.6084      2.00000
      5      -5.3356      2.00000
      6      -5.3355      2.00000
      7      -5.3354      2.00000
      8      -5.1992      2.00000
      9      -5.1991      2.00000
     10      -5.1988      2.00000
     11      -4.8294      2.00000
     12      -4.8294      2.00000
     13      -4.8291      2.00000
     14      -4.7947      2.00000
     15      -4.7947      2.00000
     16      -4.7945      2.00000
     17      -4.7574      2.00000
     18      -4.7573      2.00000
     19      -4.7572      2.00000
     20      -4.3890      2.00000
     21      -4.3889      2.00000
     22      -4.3888      2.00000
     23      -3.8517      2.00000
     24      -3.8516      2.00000
     25      -3.8514      2.00000
     26      -3.6511      2.00000
     27      -3.6414      2.00000
     28      -3.6413      2.00000
     29      -3.6412      2.00000
     30      -3.6309      2.00000
     31      -3.5559      2.00000
     32      -3.5557      2.00000
     33      -3.5191      2.00000
     34      -3.5190      2.00000
     35      -3.5129      2.00000
     36      -3.5128      2.00000
     37      -3.5124      2.00000
     38      -3.3883      2.00000
     39      -3.3882      2.00000
     40      -3.3806      2.00000
     41      -3.3498      2.00000
     42      -3.3494      2.00000
     43      -3.3492      2.00000
     44      -3.3423      2.00000
     45      -3.3421      2.00000
     46      -3.0777      2.00000
     47      -3.0776      2.00000
     48      -3.0773      2.00000
     49      -3.0556      2.00000
     50      -3.0553      2.00000
     51      -3.0552      2.00000
     52      -2.8189      2.00000
     53      -2.8188      2.00000
     54      -2.7221      2.00000
     55      -2.7220      2.00000
     56      -2.6254      2.00000
     57      -2.6252      2.00000
     58      -2.6250      2.00000
     59      -2.5445      2.00000
     60      -2.5444      2.00000
     61      -2.5442      2.00000
     62      -2.4825      2.00000
     63      -2.4825      2.00000
     64      -2.3504      2.00000
     65      -2.3502      2.00000
     66      -2.3501      2.00000
     67      -2.3500      2.00000
     68      -2.3499      2.00000
     69      -2.3497      2.00000
     70      -2.3161      2.00000
     71      -2.3161      2.00000
     72      -2.2724      2.00000
     73      -2.2722      2.00000
     74      -2.2717      2.00000
     75      -2.2171      2.00000
     76      -2.2169      2.00000
     77      -2.2165      2.00000
     78      -2.1545      2.00000
     79      -2.1542      2.00000
     80      -2.1541      2.00000
     81      -2.1380      2.00000
     82      -2.1377      2.00000
     83      -2.1376      2.00000
     84      -1.8884      2.00000
     85      -0.9189      2.05448
     86      -0.9189      2.05447
     87      -0.9189      2.05444
     88      -0.8428      1.87530
     89       0.0010     -0.00001
     90       0.0011     -0.00001
     91       0.0011     -0.00001
     92       0.5358     -0.00000
     93       0.5359     -0.00000
     94       0.5359     -0.00000
     95       0.8051     -0.00000
     96       0.8051     -0.00000
     97       0.8052     -0.00000
     98       3.0446     -0.00000
     99       3.2062     -0.00000
    100       3.3401     -0.00000
    101       3.3402     -0.00000
    102       3.3402     -0.00000
    103       4.1340     -0.00000
    104       4.1341     -0.00000
    105       4.1341     -0.00000
    106       4.1415     -0.00000
    107       4.3814     -0.00000
    108       5.1537      0.00000

 k-point     2 :       0.2000   -0.0000    0.0000
  band No.  band energies     occupation 
      1      -9.0159      2.00000
      2      -7.7926      2.00000
      3      -6.2042      2.00000
      4      -5.6705      2.00000
      5      -5.4023      2.00000
      6      -5.3078      2.00000
      7      -5.2687      2.00000
      8      -5.2686      2.00000
      9      -5.1121      2.00000
     10      -5.1120      2.00000
     11      -4.9371      2.00000
     12      -4.7797      2.00000
     13      -4.7796      2.00000
     14      -4.7228      2.00000
     15      -4.7051      2.00000
     16      -4.7050      2.00000
     17      -4.5919      2.00000
     18      -4.5833      2.00000
     19      -4.5832      2.00000
     20      -4.3236      2.00000
     21      -4.3235      2.00000
     22      -4.3155      2.00000
     23      -3.9077      2.00000
     24      -3.9076      2.00000
     25      -3.8381      2.00000
     26      -3.7885      2.00000
     27      -3.7393      2.00000
     28      -3.6479      2.00000
     29      -3.6017      2.00000
     30      -3.6015      2.00000
     31      -3.5955      2.00000
     32      -3.5658      2.00000
     33      -3.5657      2.00000
     34      -3.4948      2.00000
     35      -3.4930      2.00000
     36      -3.4788      2.00000
     37      -3.4651      2.00000
     38      -3.4587      2.00000
     39      -3.4504      2.00000
     40      -3.4438      2.00000
     41      -3.4378      2.00000
     42      -3.4376      2.00000
     43      -3.3326      2.00000
     44      -3.2951      2.00000
     45      -3.2949      2.00000
     46      -3.2941      2.00000
     47      -3.2479      2.00000
     48      -3.1755      2.00000
     49      -3.0620      2.00000
     50      -3.0054      2.00000
     51      -3.0052      2.00000
     52      -2.8897      2.00000
     53      -2.8735      2.00000
     54      -2.8030      2.00000
     55      -2.7776      2.00000
     56      -2.7775      2.00000
     57      -2.7184      2.00000
     58      -2.7067      2.00000
     59      -2.6960      2.00000
     60      -2.6912      2.00000
     61      -2.6911      2.00000
     62      -2.6414      2.00000
     63      -2.6230      2.00000
     64      -2.6228      2.00000
     65      -2.4832      2.00000
     66      -2.4541      2.00000
     67      -2.4442      2.00000
     68      -2.4440      2.00000
     69      -2.4208      2.00000
     70      -2.4046      2.00000
     71      -2.3868      2.00000
     72      -2.3866      2.00000
     73      -2.3787      2.00000
     74      -2.3617      2.00000
     75      -2.3616      2.00000
     76      -2.3101      2.00000
     77      -2.2955      2.00000
     78      -2.2809      2.00000
     79      -2.2807      2.00000
     80      -2.2733      2.00000
     81      -2.2248      2.00000
     82      -2.2051      2.00000
     83      -2.2048      2.00000
     84      -2.1773      2.00000
     85      -1.6467      2.00000
     86      -1.3745      2.00003
     87      -0.9116      2.04708
     88      -0.9114      2.04686
     89      -0.2921     -0.01094
     90      -0.2920     -0.01093
     91      -0.2154     -0.00236
     92      -0.1612     -0.00065
     93       0.8599     -0.00000
     94       0.8600     -0.00000
     95       1.8988     -0.00000
     96       1.8988     -0.00000
     97       2.0115     -0.00000
     98       3.3127     -0.00000
     99       3.5062     -0.00000
    100       3.6375     -0.00000
    101       3.6375     -0.00000
    102       4.0561     -0.00000
    103       4.4384     -0.00000
    104       4.5128     -0.00000
    105       4.5129     -0.00000
    106       4.6371     -0.00000
    107       4.7883      0.00000
    108       5.3292      0.00000

 k-point     3 :       0.4000   -0.0000    0.0000
  band No.  band energies     occupation 
      1      -8.1307      2.00000
      2      -6.9679      2.00000
      3      -6.8313      2.00000
      4      -5.9118      2.00000
      5      -5.5154      2.00000
      6      -5.1324      2.00000
      7      -5.1323      2.00000
      8      -4.9910      2.00000
      9      -4.9082      2.00000
     10      -4.8997      2.00000
     11      -4.8995      2.00000
     12      -4.6624      2.00000
     13      -4.6621      2.00000
     14      -4.6061      2.00000
     15      -4.4738      2.00000
     16      -4.4737      2.00000
     17      -4.3895      2.00000
     18      -4.2869      2.00000
     19      -4.2866      2.00000
     20      -4.1430      2.00000
     21      -4.1429      2.00000
     22      -4.1181      2.00000
     23      -4.1066      2.00000
     24      -4.0458      2.00000
     25      -4.0458      2.00000
     26      -3.9163      2.00000
     27      -3.8975      2.00000
     28      -3.8657      2.00000
     29      -3.8090      2.00000
     30      -3.8088      2.00000
     31      -3.7282      2.00000
     32      -3.7279      2.00000
     33      -3.7164      2.00000
     34      -3.5917      2.00000
     35      -3.5653      2.00000
     36      -3.5182      2.00000
     37      -3.4729      2.00000
     38      -3.4338      2.00000
     39      -3.4338      2.00000
     40      -3.3977      2.00000
     41      -3.3683      2.00000
     42      -3.3683      2.00000
     43      -3.3581      2.00000
     44      -3.3246      2.00000
     45      -3.3186      2.00000
     46      -3.3185      2.00000
     47      -3.3094      2.00000
     48      -3.2618      2.00000
     49      -3.2617      2.00000
     50      -3.2594      2.00000
     51      -3.1928      2.00000
     52      -3.1627      2.00000
     53      -3.1526      2.00000
     54      -3.0751      2.00000
     55      -3.0444      2.00000
     56      -3.0032      2.00000
     57      -3.0031      2.00000
     58      -2.9974      2.00000
     59      -2.9855      2.00000
     60      -2.8590      2.00000
     61      -2.8130      2.00000
     62      -2.7665      2.00000
     63      -2.7663      2.00000
     64      -2.7512      2.00000
     65      -2.7370      2.00000
     66      -2.7053      2.00000
     67      -2.7049      2.00000
     68      -2.6845      2.00000
     69      -2.6577      2.00000
     70      -2.6439      2.00000
     71      -2.6437      2.00000
     72      -2.5770      2.00000
     73      -2.5705      2.00000
     74      -2.5513      2.00000
     75      -2.4857      2.00000
     76      -2.4618      2.00000
     77      -2.3999      2.00000
     78      -2.3998      2.00000
     79      -2.2967      2.00000
     80      -2.2899      2.00000
     81      -2.2897      2.00000
     82      -2.2800      2.00000
     83      -2.2071      2.00000
     84      -2.2066      2.00000
     85      -2.0616      2.00000
     86      -1.4383      2.00000
     87      -0.9068      2.04126
     88      -0.9065      2.04089
     89      -0.4627     -0.07056
     90      -0.3209     -0.01768
     91      -0.3208     -0.01766
     92       0.7411     -0.00000
     93       1.0861     -0.00000
     94       1.0862     -0.00000
     95       1.2351     -0.00000
     96       3.0089     -0.00000
     97       3.2147     -0.00000
     98       3.2148     -0.00000
     99       4.1136     -0.00000
    100       4.4051     -0.00000
    101       4.6637     -0.00000
    102       4.6638     -0.00000
    103       5.3286      0.00000
    104       5.4182      0.00000
    105       5.4184      0.00000
    106       5.5733      0.00000
    107       5.5733      0.00000
    108       5.9091      0.00000

 k-point     4 :       0.0000    0.2000    0.0000
  band No.  band energies     occupation 
      1      -9.0159      2.00000
      2      -7.7926      2.00000
      3      -6.2042      2.00000
      4      -5.6705      2.00000
      5      -5.4023      2.00000
      6      -5.3078      2.00000
      7      -5.2687      2.00000
      8      -5.2686      2.00000
      9      -5.1122      2.00000
     10      -5.1119      2.00000
     11      -4.9371      2.00000
     12      -4.7798      2.00000
     13      -4.7795      2.00000
     14      -4.7228      2.00000
     15      -4.7051      2.00000
     16      -4.7050      2.00000
     17      -4.5919      2.00000
     18      -4.5834      2.00000
     19      -4.5831      2.00000
     20      -4.3236      2.00000
     21      -4.3234      2.00000
     22      -4.3155      2.00000
     23      -3.9078      2.00000
     24      -3.9076      2.00000
     25      -3.8381      2.00000
     26      -3.7885      2.00000
     27      -3.7393      2.00000
     28      -3.6479      2.00000
     29      -3.6017      2.00000
     30      -3.6014      2.00000
     31      -3.5956      2.00000
     32      -3.5658      2.00000
     33      -3.5656      2.00000
     34      -3.4948      2.00000
     35      -3.4930      2.00000
     36      -3.4788      2.00000
     37      -3.4651      2.00000
     38      -3.4587      2.00000
     39      -3.4504      2.00000
     40      -3.4438      2.00000
     41      -3.4379      2.00000
     42      -3.4375      2.00000
     43      -3.3326      2.00000
     44      -3.2952      2.00000
     45      -3.2948      2.00000
     46      -3.2941      2.00000
     47      -3.2479      2.00000
     48      -3.1755      2.00000
     49      -3.0620      2.00000
     50      -3.0055      2.00000
     51      -3.0051      2.00000
     52      -2.8897      2.00000
     53      -2.8735      2.00000
     54      -2.8030      2.00000
     55      -2.7777      2.00000
     56      -2.7774      2.00000
     57      -2.7184      2.00000
     58      -2.7067      2.00000
     59      -2.6960      2.00000
     60      -2.6913      2.00000
     61      -2.6910      2.00000
     62      -2.6414      2.00000
     63      -2.6231      2.00000
     64      -2.6227      2.00000
     65      -2.4832      2.00000
     66      -2.4541      2.00000
     67      -2.4444      2.00000
     68      -2.4439      2.00000
     69      -2.4208      2.00000
     70      -2.4046      2.00000
     71      -2.3869      2.00000
     72      -2.3866      2.00000
     73      -2.3787      2.00000
     74      -2.3617      2.00000
     75      -2.3615      2.00000
     76      -2.3101      2.00000
     77      -2.2955      2.00000
     78      -2.2811      2.00000
     79      -2.2806      2.00000
     80      -2.2733      2.00000
     81      -2.2248      2.00000
     82      -2.2053      2.00000
     83      -2.2045      2.00000
     84      -2.1773      2.00000
     85      -1.6467      2.00000
     86      -1.3745      2.00003
     87      -0.9117      2.04719
     88      -0.9113      2.04675
     89      -0.2921     -0.01095
     90      -0.2920     -0.01092
     91      -0.2154     -0.00236
     92      -0.1612     -0.00065
     93       0.8599     -0.00000
     94       0.8600     -0.00000
     95       1.8988     -0.00000
     96       1.8988     -0.00000
     97       2.0115     -0.00000
     98       3.3127     -0.00000
     99       3.5062     -0.00000
    100       3.6375     -0.00000
    101       3.6375     -0.00000
    102       4.0561     -0.00000
    103       4.4384     -0.00000
    104       4.5128     -0.00000
    105       4.5129     -0.00000
    106       4.6371     -0.00000
    107       4.7883      0.00000
    108       5.3297      0.00000

 k-point     5 :       0.2000    0.2000    0.0000
  band No.  band energies     occupation 
      1      -9.0159      2.00000
      2      -7.7926      2.00000
      3      -6.2042      2.00000
      4      -5.6706      2.00000
      5      -5.4023      2.00000
      6      -5.3078      2.00000
      7      -5.2686      2.00000
      8      -5.2686      2.00000
      9      -5.1121      2.00000
     10      -5.1120      2.00000
     11      -4.9371      2.00000
     12      -4.7797      2.00000
     13      -4.7796      2.00000
     14      -4.7227      2.00000
     15      -4.7051      2.00000
     16      -4.7050      2.00000
     17      -4.5918      2.00000
     18      -4.5833      2.00000
     19      -4.5833      2.00000
     20      -4.3236      2.00000
     21      -4.3236      2.00000
     22      -4.3154      2.00000
     23      -3.9077      2.00000
     24      -3.9076      2.00000
     25      -3.8381      2.00000
     26      -3.7884      2.00000
     27      -3.7393      2.00000
     28      -3.6478      2.00000
     29      -3.6017      2.00000
     30      -3.6015      2.00000
     31      -3.5955      2.00000
     32      -3.5658      2.00000
     33      -3.5656      2.00000
     34      -3.4947      2.00000
     35      -3.4929      2.00000
     36      -3.4789      2.00000
     37      -3.4651      2.00000
     38      -3.4588      2.00000
     39      -3.4505      2.00000
     40      -3.4436      2.00000
     41      -3.4378      2.00000
     42      -3.4377      2.00000
     43      -3.3325      2.00000
     44      -3.2950      2.00000
     45      -3.2949      2.00000
     46      -3.2943      2.00000
     47      -3.2480      2.00000
     48      -3.1755      2.00000
     49      -3.0620      2.00000
     50      -3.0053      2.00000
     51      -3.0052      2.00000
     52      -2.8896      2.00000
     53      -2.8736      2.00000
     54      -2.8030      2.00000
     55      -2.7776      2.00000
     56      -2.7776      2.00000
     57      -2.7184      2.00000
     58      -2.7068      2.00000
     59      -2.6960      2.00000
     60      -2.6912      2.00000
     61      -2.6910      2.00000
     62      -2.6414      2.00000
     63      -2.6229      2.00000
     64      -2.6228      2.00000
     65      -2.4832      2.00000
     66      -2.4542      2.00000
     67      -2.4442      2.00000
     68      -2.4440      2.00000
     69      -2.4208      2.00000
     70      -2.4046      2.00000
     71      -2.3868      2.00000
     72      -2.3867      2.00000
     73      -2.3788      2.00000
     74      -2.3617      2.00000
     75      -2.3616      2.00000
     76      -2.3102      2.00000
     77      -2.2957      2.00000
     78      -2.2807      2.00000
     79      -2.2807      2.00000
     80      -2.2735      2.00000
     81      -2.2249      2.00000
     82      -2.2050      2.00000
     83      -2.2046      2.00000
     84      -2.1773      2.00000
     85      -1.6466      2.00000
     86      -1.3745      2.00003
     87      -0.9116      2.04702
     88      -0.9114      2.04683
     89      -0.2921     -0.01093
     90      -0.2920     -0.01093
     91      -0.2154     -0.00236
     92      -0.1612     -0.00065
     93       0.8599     -0.00000
     94       0.8599     -0.00000
     95       1.8988     -0.00000
     96       1.8988     -0.00000
     97       2.0115     -0.00000
     98       3.3127     -0.00000
     99       3.5062     -0.00000
    100       3.6375     -0.00000
    101       3.6375     -0.00000
    102       4.0562     -0.00000
    103       4.4384     -0.00000
    104       4.5128     -0.00000
    105       4.5128     -0.00000
    106       4.6371     -0.00000
    107       4.7884      0.00000
    108       5.3292      0.00000

 k-point     6 :       0.4000    0.2000    0.0000
  band No.  band energies     occupation 
      1      -8.4183      2.00000
      2      -7.2295      2.00000
      3      -6.0007      2.00000
      4      -6.0006      2.00000
      5      -5.7149      2.00000
      6      -5.3818      2.00000
      7      -5.3818      2.00000
      8      -5.0413      2.00000
      9      -4.8761      2.00000
     10      -4.8498      2.00000
     11      -4.8497      2.00000
     12      -4.8447      2.00000
     13      -4.5754      2.00000
     14      -4.5753      2.00000
     15      -4.5486      2.00000
     16      -4.4818      2.00000
     17      -4.3919      2.00000
     18      -4.3817      2.00000
     19      -4.3816      2.00000
     20      -4.2043      2.00000
     21      -4.2042      2.00000
     22      -4.1795      2.00000
     23      -4.0929      2.00000
     24      -3.9656      2.00000
     25      -3.9229      2.00000
     26      -3.9215      2.00000
     27      -3.9214      2.00000
     28      -3.8078      2.00000
     29      -3.7543      2.00000
     30      -3.7541      2.00000
     31      -3.7224      2.00000
     32      -3.6988      2.00000
     33      -3.5946      2.00000
     34      -3.5479      2.00000
     35      -3.5458      2.00000
     36      -3.5458      2.00000
     37      -3.5322      2.00000
     38      -3.4679      2.00000
     39      -3.4677      2.00000
     40      -3.4630      2.00000
     41      -3.3999      2.00000
     42      -3.3951      2.00000
     43      -3.3235      2.00000
     44      -3.3114      2.00000
     45      -3.3114      2.00000
     46      -3.2590      2.00000
     47      -3.2151      2.00000
     48      -3.2149      2.00000
     49      -3.1345      2.00000
     50      -3.1342      2.00000
     51      -3.1303      2.00000
     52      -3.1040      2.00000
     53      -3.0796      2.00000
     54      -3.0765      2.00000
     55      -3.0104      2.00000
     56      -3.0091      2.00000
     57      -2.9882      2.00000
     58      -2.9764      2.00000
     59      -2.9763      2.00000
     60      -2.9265      2.00000
     61      -2.7477      2.00000
     62      -2.7465      2.00000
     63      -2.7464      2.00000
     64      -2.7319      2.00000
     65      -2.6843      2.00000
     66      -2.6841      2.00000
     67      -2.5948      2.00000
     68      -2.5906      2.00000
     69      -2.5817      2.00000
     70      -2.5815      2.00000
     71      -2.5736      2.00000
     72      -2.4776      2.00000
     73      -2.4103      2.00000
     74      -2.4101      2.00000
     75      -2.3896      2.00000
     76      -2.3844      2.00000
     77      -2.3843      2.00000
     78      -2.3552      2.00000
     79      -2.3492      2.00000
     80      -2.2775      2.00000
     81      -2.2774      2.00000
     82      -2.2701      2.00000
     83      -2.1393      2.00000
     84      -2.0498      2.00000
     85      -2.0496      2.00000
     86      -1.8482      2.00000
     87      -1.8482      2.00000
     88      -0.7277      1.11120
     89      -0.5993      0.18193
     90      -0.5992      0.18154
     91       0.7953     -0.00000
     92       0.8208     -0.00000
     93       1.2218     -0.00000
     94       1.7145     -0.00000
     95       1.7146     -0.00000
     96       1.7560     -0.00000
     97       2.2991     -0.00000
     98       3.8475     -0.00000
     99       3.8749     -0.00000
    100       4.1059     -0.00000
    101       4.2208     -0.00000
    102       4.2208     -0.00000
    103       4.7379     -0.00000
    104       5.0322      0.00000
    105       5.1565      0.00000
    106       5.7065      0.00000
    107       5.7066      0.00000
    108       5.9501      0.00000

 k-point     7 :      -0.4000    0.2000    0.0000
  band No.  band energies     occupation 
      1      -7.3081      2.00000
      2      -7.3081      2.00000
      3      -6.2514      2.00000
      4      -6.2514      2.00000
      5      -6.1296      2.00000
      6      -5.3781      2.00000
      7      -5.0414      2.00000
      8      -5.0414      2.00000
      9      -4.7317      2.00000
     10      -4.6383      2.00000
     11      -4.5793      2.00000
     12      -4.5727      2.00000
     13      -4.5726      2.00000
     14      -4.5121      2.00000
     15      -4.3509      2.00000
     16      -4.3254      2.00000
     17      -4.2850      2.00000
     18      -4.2721      2.00000
     19      -4.2306      2.00000
     20      -4.2229      2.00000
     21      -4.2227      2.00000
     22      -4.0811      2.00000
     23      -4.0779      2.00000
     24      -4.0491      2.00000
     25      -4.0488      2.00000
     26      -4.0059      2.00000
     27      -3.9931      2.00000
     28      -3.9930      2.00000
     29      -3.8298      2.00000
     30      -3.8038      2.00000
     31      -3.7495      2.00000
     32      -3.7262      2.00000
     33      -3.7262      2.00000
     34      -3.7034      2.00000
     35      -3.6778      2.00000
     36      -3.6663      2.00000
     37      -3.6662      2.00000
     38      -3.6549      2.00000
     39      -3.6001      2.00000
     40      -3.6000      2.00000
     41      -3.4717      2.00000
     42      -3.4716      2.00000
     43      -3.4575      2.00000
     44      -3.3932      2.00000
     45      -3.3829      2.00000
     46      -3.3735      2.00000
     47      -3.3126      2.00000
     48      -3.3126      2.00000
     49      -3.2955      2.00000
     50      -3.2836      2.00000
     51      -3.1926      2.00000
     52      -3.1925      2.00000
     53      -3.0429      2.00000
     54      -3.0395      2.00000
     55      -3.0393      2.00000
     56      -3.0087      2.00000
     57      -3.0086      2.00000
     58      -2.9452      2.00000
     59      -2.8938      2.00000
     60      -2.8862      2.00000
     61      -2.8860      2.00000
     62      -2.8045      2.00000
     63      -2.7754      2.00000
     64      -2.7392      2.00000
     65      -2.7054      2.00000
     66      -2.7053      2.00000
     67      -2.6874      2.00000
     68      -2.6385      2.00000
     69      -2.6383      2.00000
     70      -2.5902      2.00000
     71      -2.5902      2.00000
     72      -2.5518      2.00000
     73      -2.5107      2.00000
     74      -2.5106      2.00000
     75      -2.4918      2.00000
     76      -2.4916      2.00000
     77      -2.4320      2.00000
     78      -2.4074      2.00000
     79      -2.3714      2.00000
     80      -2.3665      2.00000
     81      -2.3478      2.00000
     82      -2.3477      2.00000
     83      -2.3004      2.00000
     84      -2.2896      2.00000
     85      -1.9809      2.00000
     86      -1.7974      2.00000
     87      -1.6433      2.00000
     88      -1.6431      2.00000
     89      -0.6485      0.47351
     90       0.3019     -0.00000
     91       0.3019     -0.00000
     92       1.0155     -0.00000
     93       1.5840     -0.00000
     94       1.8713     -0.00000
     95       2.3554     -0.00000
     96       2.3555     -0.00000
     97       3.1808     -0.00000
     98       3.8107     -0.00000
     99       3.8927     -0.00000
    100       3.9928     -0.00000
    101       4.8434      0.00000
    102       4.9150      0.00000
    103       4.9151      0.00000
    104       5.0535      0.00000
    105       5.3014      0.00000
    106       5.3014      0.00000
    107       5.9257      0.00000
    108       6.2263      0.00000

 k-point     8 :      -0.2000    0.2000    0.0000
  band No.  band energies     occupation 
      1      -8.4183      2.00000
      2      -7.2295      2.00000
      3      -6.0006      2.00000
      4      -6.0006      2.00000
      5      -5.7149      2.00000
      6      -5.3818      2.00000
      7      -5.3817      2.00000
      8      -5.0413      2.00000
      9      -4.8761      2.00000
     10      -4.8498      2.00000
     11      -4.8498      2.00000
     12      -4.8447      2.00000
     13      -4.5754      2.00000
     14      -4.5754      2.00000
     15      -4.5485      2.00000
     16      -4.4817      2.00000
     17      -4.3919      2.00000
     18      -4.3817      2.00000
     19      -4.3817      2.00000
[...]
     92       0.7411     -0.00000
     93       1.0861     -0.00000
     94       1.0862     -0.00000
     95       1.2351     -0.00000
     96       3.0089     -0.00000
     97       3.2147     -0.00000
     98       3.2148     -0.00000
     99       4.1136     -0.00000
    100       4.4051     -0.00000
    101       4.6637     -0.00000
    102       4.6637     -0.00000
    103       5.3286      0.00000
    104       5.4182      0.00000
    105       5.4184      0.00000
    106       5.5732      0.00000
    107       5.5733      0.00000
    108       5.9029      0.00000

 k-point    12 :      -0.4000    0.4000    0.0000
  band No.  band energies     occupation 
      1      -7.3081      2.00000
      2      -7.3081      2.00000
      3      -6.2514      2.00000
      4      -6.2514      2.00000
      5      -6.1296      2.00000
      6      -5.3780      2.00000
      7      -5.0414      2.00000
      8      -5.0414      2.00000
      9      -4.7317      2.00000
     10      -4.6383      2.00000
     11      -4.5793      2.00000
     12      -4.5727      2.00000
     13      -4.5725      2.00000
     14      -4.5121      2.00000
     15      -4.3509      2.00000
     16      -4.3255      2.00000
     17      -4.2851      2.00000
     18      -4.2721      2.00000
     19      -4.2306      2.00000
     20      -4.2229      2.00000
     21      -4.2226      2.00000
     22      -4.0812      2.00000
     23      -4.0780      2.00000
     24      -4.0491      2.00000
     25      -4.0488      2.00000
     26      -4.0060      2.00000
     27      -3.9931      2.00000
     28      -3.9929      2.00000
     29      -3.8298      2.00000
     30      -3.8039      2.00000
     31      -3.7495      2.00000
     32      -3.7262      2.00000
     33      -3.7261      2.00000
     34      -3.7034      2.00000
     35      -3.6778      2.00000
     36      -3.6662      2.00000
     37      -3.6662      2.00000
     38      -3.6549      2.00000
     39      -3.6000      2.00000
     40      -3.5999      2.00000
     41      -3.4718      2.00000
     42      -3.4716      2.00000
     43      -3.4575      2.00000
     44      -3.3932      2.00000
     45      -3.3829      2.00000
     46      -3.3735      2.00000
     47      -3.3126      2.00000
     48      -3.3124      2.00000
     49      -3.2955      2.00000
     50      -3.2837      2.00000
     51      -3.1927      2.00000
     52      -3.1924      2.00000
     53      -3.0429      2.00000
     54      -3.0396      2.00000
     55      -3.0394      2.00000
     56      -3.0087      2.00000
     57      -3.0086      2.00000
     58      -2.9452      2.00000
     59      -2.8938      2.00000
     60      -2.8863      2.00000
     61      -2.8860      2.00000
     62      -2.8045      2.00000
     63      -2.7753      2.00000
     64      -2.7391      2.00000
     65      -2.7055      2.00000
     66      -2.7053      2.00000
     67      -2.6874      2.00000
     68      -2.6385      2.00000
     69      -2.6384      2.00000
     70      -2.5904      2.00000
     71      -2.5901      2.00000
     72      -2.5518      2.00000
     73      -2.5107      2.00000
     74      -2.5106      2.00000
     75      -2.4919      2.00000
     76      -2.4916      2.00000
     77      -2.4320      2.00000
     78      -2.4074      2.00000
     79      -2.3713      2.00000
     80      -2.3664      2.00000
     81      -2.3479      2.00000
     82      -2.3477      2.00000
     83      -2.3003      2.00000
     84      -2.2895      2.00000
     85      -1.9808      2.00000
     86      -1.7973      2.00000
     87      -1.6433      2.00000
     88      -1.6431      2.00000
     89      -0.6486      0.47383
     90       0.3019     -0.00000
     91       0.3019     -0.00000
     92       1.0156     -0.00000
     93       1.5840     -0.00000
     94       1.8713     -0.00000
     95       2.3554     -0.00000
     96       2.3555     -0.00000
     97       3.1808     -0.00000
     98       3.8108     -0.00000
     99       3.8927     -0.00000
    100       3.9928     -0.00000
    101       4.8434      0.00000
    102       4.9150      0.00000
    103       4.9151      0.00000
    104       5.0535      0.00000
    105       5.3014      0.00000
    106       5.3014      0.00000
    107       5.9257      0.00000
    108       6.2249      0.00000

 k-point    13 :      -0.2000    0.4000    0.0000
  band No.  band energies     occupation 
      1      -7.3082      2.00000
      2      -7.3080      2.00000
      3      -6.2514      2.00000
      4      -6.2514      2.00000
      5      -6.1296      2.00000
      6      -5.3781      2.00000
      7      -5.0414      2.00000
      8      -5.0414      2.00000
      9      -4.7317      2.00000
     10      -4.6383      2.00000
     11      -4.5793      2.00000
     12      -4.5728      2.00000
     13      -4.5725      2.00000
     14      -4.5121      2.00000
     15      -4.3509      2.00000
     16      -4.3254      2.00000
     17      -4.2850      2.00000
     18      -4.2721      2.00000
     19      -4.2306      2.00000
     20      -4.2230      2.00000
     21      -4.2226      2.00000
     22      -4.0811      2.00000
     23      -4.0779      2.00000
     24      -4.0492      2.00000
     25      -4.0487      2.00000
     26      -4.0059      2.00000
     27      -3.9931      2.00000
     28      -3.9930      2.00000
     29      -3.8298      2.00000
     30      -3.8038      2.00000
     31      -3.7495      2.00000
     32      -3.7262      2.00000
     33      -3.7262      2.00000
     34      -3.7034      2.00000
     35      -3.6778      2.00000
     36      -3.6664      2.00000
     37      -3.6662      2.00000
     38      -3.6549      2.00000
     39      -3.6001      2.00000
     40      -3.5999      2.00000
     41      -3.4717      2.00000
     42      -3.4716      2.00000
     43      -3.4575      2.00000
     44      -3.3932      2.00000
     45      -3.3829      2.00000
     46      -3.3735      2.00000
     47      -3.3127      2.00000
     48      -3.3125      2.00000
     49      -3.2955      2.00000
     50      -3.2836      2.00000
     51      -3.1927      2.00000
     52      -3.1924      2.00000
     53      -3.0429      2.00000
     54      -3.0396      2.00000
     55      -3.0392      2.00000
     56      -3.0087      2.00000
     57      -3.0086      2.00000
     58      -2.9452      2.00000
     59      -2.8938      2.00000
     60      -2.8862      2.00000
     61      -2.8859      2.00000
     62      -2.8045      2.00000
     63      -2.7754      2.00000
     64      -2.7392      2.00000
     65      -2.7054      2.00000
     66      -2.7053      2.00000
     67      -2.6874      2.00000
     68      -2.6386      2.00000
     69      -2.6382      2.00000
     70      -2.5903      2.00000
     71      -2.5901      2.00000
     72      -2.5518      2.00000
     73      -2.5107      2.00000
     74      -2.5106      2.00000
     75      -2.4919      2.00000
     76      -2.4916      2.00000
     77      -2.4320      2.00000
     78      -2.4074      2.00000
     79      -2.3714      2.00000
     80      -2.3664      2.00000
     81      -2.3479      2.00000
     82      -2.3476      2.00000
     83      -2.3004      2.00000
     84      -2.2896      2.00000
     85      -1.9809      2.00000
     86      -1.7974      2.00000
     87      -1.6433      2.00000
     88      -1.6431      2.00000
     89      -0.6485      0.47352
     90       0.3018     -0.00000
     91       0.3020     -0.00000
     92       1.0155     -0.00000
     93       1.5840     -0.00000
     94       1.8713     -0.00000
     95       2.3554     -0.00000
     96       2.3555     -0.00000
     97       3.1808     -0.00000
     98       3.8107     -0.00000
     99       3.8927     -0.00000
    100       3.9928     -0.00000
    101       4.8434      0.00000
    102       4.9150      0.00000
    103       4.9151      0.00000
    104       5.0535      0.00000
    105       5.3014      0.00000
    106       5.3014      0.00000
    107       5.9257      0.00000
    108       6.2181      0.00000


--------------------------------------------------------------------------------------------------------


 soft charge-density along one line, spin component           1
         0         1         2         3         4         5         6         7         8         9
 total charge-density along one line
 
 pseudopotential strength for first ion, spin component:           1
 -8.763   0.000   0.000  -0.005   0.000  -0.290  -0.000  -0.000
  0.000  -8.717   0.000   0.000  -0.005  -0.000  -0.328  -0.000
  0.000   0.000  -8.708   0.000   0.000  -0.000  -0.000  -0.335
 -0.005   0.000   0.000  -8.717   0.000   0.003  -0.000  -0.000
  0.000  -0.005   0.000   0.000  -8.763  -0.000   0.003  -0.000
 -0.290  -0.000  -0.000   0.003  -0.000   7.205   0.000   0.000
 -0.000  -0.328  -0.000  -0.000   0.003   0.000   7.232  -0.000
 -0.000  -0.000  -0.335  -0.000  -0.000   0.000  -0.000   7.238
  0.003  -0.000  -0.000  -0.328  -0.000  -0.003  -0.000   0.000
 -0.000   0.003  -0.000  -0.000  -0.290   0.000  -0.003   0.000
  0.000   0.000  -0.009  -0.000   0.000   0.000  -0.000   0.004
  0.000   0.000  -0.016  -0.000   0.000   0.000  -0.000   0.007
 -0.000  -0.011   0.000  -0.000   0.000   0.000   0.010  -0.000
 -0.000  -0.000  -0.012  -0.000   0.000  -0.000  -0.000   0.009
  0.000  -0.000   0.000  -0.011  -0.000  -0.000  -0.000  -0.000
 -0.000  -0.013   0.000   0.000   0.000   0.000   0.012   0.000
  0.000  -0.000  -0.013  -0.000   0.000  -0.000  -0.000   0.010
  0.000   0.000   0.000  -0.013  -0.000  -0.000  -0.000  -0.000
 total augmentation occupancy for first ion, spin component:           1
  1.902  -0.000   0.000  -0.007   0.000  -0.022   0.000   0.000   0.005   0.000  -0.000   0.000  -0.000   0.000   0.009   0.000
 -0.000   1.923  -0.000  -0.000  -0.007  -0.000  -0.037   0.000  -0.000   0.005  -0.000   0.000   0.009  -0.000  -0.000  -0.012
  0.000  -0.000   1.924  -0.000   0.000   0.000   0.000  -0.034   0.000   0.000  -0.004   0.012  -0.000   0.051  -0.000   0.000
 -0.007  -0.000  -0.000   1.923  -0.000   0.005  -0.000   0.000  -0.037  -0.000  -0.000   0.000  -0.000   0.000   0.009   0.000
  0.000  -0.007   0.000  -0.000   1.902   0.000   0.005   0.000  -0.000  -0.022  -0.000   0.000   0.009   0.000  -0.000  -0.001
 -0.022  -0.000   0.000   0.005   0.000   0.012  -0.000  -0.000   0.000   0.000  -0.000   0.000   0.000  -0.000   0.002   0.000
  0.000  -0.037   0.000  -0.000   0.005  -0.000   0.009  -0.000  -0.000   0.000   0.000  -0.000   0.015   0.000   0.000  -0.001
  0.000   0.000  -0.034   0.000   0.000  -0.000  -0.000   0.012   0.000  -0.000  -0.039   0.002   0.000   0.020   0.000  -0.000
  0.005  -0.000   0.000  -0.037  -0.000   0.000  -0.000   0.000   0.009   0.000   0.000  -0.000   0.000   0.000   0.015  -0.000
  0.000   0.005   0.000  -0.000  -0.022   0.000   0.000  -0.000   0.000   0.012  -0.000  -0.000   0.002  -0.000   0.000  -0.000
 -0.000  -0.000  -0.004  -0.000  -0.000  -0.000   0.000  -0.039   0.000  -0.000   1.592  -0.119  -0.000   0.119  -0.000   0.000
  0.000   0.000   0.012   0.000   0.000   0.000  -0.000   0.002  -0.000  -0.000  -0.119   0.014  -0.000  -0.019  -0.000  -0.000
 -0.000   0.009  -0.000  -0.000   0.009   0.000   0.015   0.000   0.000   0.002  -0.000  -0.000   0.186   0.000  -0.000  -0.011
  0.000  -0.000   0.051   0.000   0.000  -0.000   0.000   0.020   0.000  -0.000   0.119  -0.019   0.000   0.113   0.000  -0.000
  0.009  -0.000  -0.000   0.009  -0.000   0.002   0.000   0.000   0.015   0.000  -0.000  -0.000  -0.000   0.000   0.186   0.000
  0.000  -0.012   0.000   0.000  -0.001   0.000  -0.001  -0.000  -0.000  -0.000   0.000  -0.000  -0.011  -0.000   0.000   0.001
 -0.000   0.000  -0.017  -0.000  -0.000   0.000  -0.000  -0.001  -0.000   0.000  -0.017   0.002   0.000  -0.007  -0.000  -0.000
 -0.001   0.000   0.000  -0.012   0.000  -0.000  -0.000  -0.000  -0.001   0.000   0.000  -0.000   0.000   0.000  -0.011  -0.000


------------------------ aborting loop because EDIFF is reached ----------------------------------------


    CHARGE:  cpu time    0.2777: real time    0.4001
    FORLOC:  cpu time    0.0048: real time    0.0152
    FORNL :  cpu time    1.1971: real time    1.8144
    FORCOR:  cpu time    0.0846: real time    0.1216
    FORHAR:  cpu time    0.0115: real time    0.0230
    MIXING:  cpu time    0.0388: real time    0.0681
    OFIELD:  cpu time    0.0000: real time    0.0000

 VOLUME and BASIS-vectors are now :
 -----------------------------------------------------------------------------
  energy-cutoff  :      350.00
  volume of cell :      617.47
      direct lattice vectors                 reciprocal lattice vectors
     5.199963631  0.000000000  0.000000000     0.192309037 -0.111029674  0.000000000
     2.599981815  4.503300603  0.000000000     0.000000000  0.222059349  0.000000000
     0.000000000  0.000000000 26.368628788     0.000000000  0.000000000  0.037923853

  length of vectors
     5.199963631  5.199963631 26.368628788     0.222059349  0.222059349  0.037923853


 FORCES acting on ions
    electron-ion (+dipol)            ewald-force                    non-local-force                 convergence-correction
 -----------------------------------------------------------------------------------------------
   0.267E-02 0.917E-03 0.381E+04   -.109E-03 -.739E-04 -.381E+04   -.371E-03 -.269E-03 -.242E+01   -.206E-02 -.493E-03 -.256E+00
   -.263E-02 -.454E-03 0.381E+04   0.108E-03 -.476E-03 -.381E+04   0.251E-03 -.691E-03 -.242E+01   0.218E-02 0.179E-02 -.256E+00
   -.139E-02 -.174E-02 0.381E+04   -.350E-03 0.337E-03 -.381E+04   -.459E-03 0.690E-03 -.242E+01   0.228E-02 0.531E-03 -.255E+00
   0.148E-02 0.126E-02 0.381E+04   0.348E-03 0.211E-03 -.381E+04   0.346E-03 0.388E-03 -.242E+01   -.224E-02 -.194E-02 -.255E+00
   0.191E-03 -.781E-02 0.128E+04   0.110E-02 0.854E-02 -.128E+04   0.414E-04 0.314E-03 -.990E+00   -.136E-02 -.103E-02 -.836E-01
   0.620E-03 -.454E-02 0.128E+04   -.175E-02 0.271E-02 -.128E+04   -.785E-04 -.983E-04 -.990E+00   0.121E-02 0.194E-02 -.851E-01
   0.309E-02 0.669E-02 0.128E+04   -.531E-02 -.671E-02 -.128E+04   -.381E-03 -.221E-03 -.990E+00   0.256E-02 0.264E-03 -.853E-01
   -.250E-02 0.644E-02 0.128E+04   0.479E-02 -.517E-02 -.128E+04   0.187E-03 -.247E-03 -.991E+00   -.247E-02 -.104E-02 -.831E-01
   -.192E-01 -.678E-01 -.127E+04   0.217E-01 0.684E-01 0.127E+04   0.325E-03 0.117E-02 0.799E+00   -.257E-02 -.133E-02 0.732E-01
   0.171E-01 -.329E-01 -.127E+04   -.199E-01 0.323E-01 0.127E+04   -.146E-03 0.445E-03 0.799E+00   0.271E-02 0.364E-03 0.725E-01
   0.294E-01 0.595E-01 -.127E+04   -.304E-01 -.611E-01 0.127E+04   -.609E-03 -.904E-03 0.799E+00   0.145E-02 0.215E-02 0.719E-01
   -.310E-01 0.389E-01 -.127E+04   0.319E-01 -.374E-01 0.127E+04   0.732E-03 -.500E-03 0.799E+00   -.137E-02 -.118E-02 0.738E-01
   -.339E-01 0.116E-01 -.382E+04   0.322E-01 -.146E-01 0.381E+04   0.609E-03 -.342E-03 0.260E+01   0.128E-02 0.312E-02 0.264E+00
   0.349E-01 0.117E-01 -.382E+04   -.333E-01 -.150E-01 0.381E+04   -.399E-03 -.354E-03 0.260E+01   -.137E-02 0.347E-02 0.263E+00
   0.550E-04 0.933E-02 -.382E+04   -.366E-03 -.533E-02 0.381E+04   0.148E-04 0.520E-04 0.260E+01   0.319E-03 -.401E-02 0.261E+00
   0.107E-02 -.311E-01 -.382E+04   -.720E-03 0.332E-01 0.381E+04   0.186E-03 0.612E-03 0.260E+01   -.548E-03 -.240E-02 0.259E+00
 -----------------------------------------------------------------------------------------------
   -.178E-04 -.667E-04 -.368E-04   -.337E-13 -.386E-13 -.546E-11   0.248E-03 0.438E-04 -.384E-01   0.127E-04 0.186E-03 -.194E-01
 
 
 POSITION                                       TOTAL-FORCE (eV/Angst)
 -----------------------------------------------------------------------------------
      0.00000      0.00000     10.00000         0.000105      0.000071      0.123877
      2.59998      0.00000     10.00000        -0.000103      0.000160      0.123536
      1.29999      2.25165     10.00000         0.000062     -0.000197      0.123257
      3.89997      2.25165     10.00000        -0.000078     -0.000091      0.123381
      1.29999      0.75055     12.12288        -0.000041      0.000003     -0.114646
      3.89997      0.75055     12.12288        -0.000012     -0.000006     -0.114560
      2.59998      3.00220     12.12288        -0.000052      0.000006     -0.114462
      5.19996      3.00220     12.12288        -0.000002     -0.000026     -0.114280
      5.19994      1.50104     14.20506         0.000272      0.000496     -0.001952
      2.59998      1.50107     14.20504        -0.000171      0.000243     -0.001938
      6.49997      3.75279     14.20507        -0.000208     -0.000429     -0.001727
      3.89993      3.75278     14.20503         0.000263     -0.000185     -0.001667
      5.19995      0.00002     16.29049         0.000174     -0.000171     -0.007246
      2.60002      0.00002     16.29047        -0.000185     -0.000189     -0.007272
      6.49996      2.25167     16.29055         0.000008      0.000037     -0.007399
      3.89999      2.25164     16.29048        -0.000031      0.000277     -0.006902
 -----------------------------------------------------------------------------------
    total drift:                                0.000243      0.000163     -0.057868


--------------------------------------------------------------------------------------------------------



  FREE ENERGIE OF THE ION-ELECTRON SYSTEM (eV)
  ---------------------------------------------------
  free  energy   TOTEN  =       -48.81505943 eV

  energy  without entropy=      -48.81944401  energy(sigma->0) =      -48.81652096
 


--------------------------------------------------------------------------------------------------------


    POTLOK:  cpu time    0.0720: real time    0.1688


--------------------------------------------------------------------------------------------------------


     LOOP+:  cpu time  142.1881: real time  221.1009
    4ORBIT:  cpu time    0.0000: real time    0.0000

volume of typ            1:    36.6 %
 
total charge     
 
# of ion       s       p       d       tot
------------------------------------------
    1        0.656   0.511   9.482  10.649
    2        0.656   0.511   9.482  10.649
    3        0.656   0.511   9.482  10.649
    4        0.656   0.511   9.482  10.649
    5        0.663   0.683   9.507  10.853
    6        0.663   0.683   9.506  10.853
    7        0.663   0.683   9.506  10.853
    8        0.663   0.683   9.506  10.853
    9        0.667   0.695   9.510  10.872
   10        0.667   0.695   9.510  10.872
   11        0.667   0.695   9.510  10.872
   12        0.667   0.695   9.510  10.872
   13        0.660   0.522   9.486  10.668
   14        0.660   0.522   9.486  10.668
   15        0.660   0.522   9.486  10.668
   16        0.660   0.522   9.486  10.668
--------------------------------------------------
tot          10.59    9.64  151.94  172.17
 

 total amount of memory used by VASP MPI-rank0    49813. kBytes
=======================================================================

   base      :      30000. kBytes
   nonlr-proj:       2120. kBytes
   fftplans  :       1786. kBytes
   grid      :       2479. kBytes
   one-center:         62. kBytes
   wavefun   :      13366. kBytes
 
  
  
 General timing and accounting informations for this job:
 ========================================================
  
                  Total CPU time used (sec):      150.571
                            User time (sec):      134.004
                          System time (sec):       16.567
                         Elapsed time (sec):      234.763
  
                   Maximum memory used (kb):      109748.
                   Average memory used (kb):           0.
  
                          Minor page faults:        36108
                          Major page faults:           74
                 Voluntary context switches:          912
