PROCAR new format
# of k-points:   13         # of bands:  108         # of ions:   16

 k-point     1 :    0.00000000 0.00000000 0.00000000     weight = 0.04000000

band     1 # energy   -9.32298007 # occ.  2.00000000
 
ion      s      p      d    tot
    1  0.024  0.003  0.000  0.027
    2  0.024  0.003  0.000  0.027
    3  0.024  0.003  0.000  0.027
    4  0.024  0.003  0.000  0.027
    5  0.086  0.001  0.000  0.087
    6  0.086  0.001  0.000  0.087
    7  0.086  0.001  0.000  0.087
    8  0.086  0.001  0.000  0.087
    9  0.092  0.001  0.000  0.092
   10  0.092  0.001  0.000  0.092
   11  0.092  0.001  0.000  0.092
   12  0.092  0.001  0.000  0.092
   13  0.028  0.004  0.000  0.032
   14  0.028  0.004  0.000  0.032
   15  0.028  0.004  0.000  0.032
   16  0.028  0.004  0.000  0.032
tot    0.918  0.033  0.001  0.952
 
band     2 # energy   -8.08709132 # occ.  2.00000000
 
ion      s      p      d    tot
    1  0.067  0.003  0.002  0.072
    2  0.067  0.003  0.002  0.072
    3  0.067  0.003  0.002  0.072
    4  0.067  0.003  0.002  0.072
    5  0.036  0.010  0.001  0.047
    6  0.036  0.010  0.001  0.047
    7  0.036  0.010  0.001  0.047
    8  0.036  0.010  0.001  0.047
    9  0.031  0.011  0.001  0.043
   10  0.031  0.011  0.001  0.043
   11  0.031  0.011  0.001  0.043
   12  0.031  0.011  0.001  0.043
   13  0.065  0.003  0.002  0.070
   14  0.065  0.003  0.002  0.070
   15  0.065  0.003  0.002  0.070
   16  0.065  0.003  0.002  0.070
tot    0.797  0.109  0.025  0.931
 
band     3 # energy   -6.47330631 # occ.  2.00000000
 
ion      s      p      d    tot
    1  0.059  0.000  0.019  0.079
    2  0.059  0.000  0.019  0.079
    3  0.059  0.000  0.019  0.079
    4  0.059  0.000  0.019  0.079
    5  0.016  0.015  0.007  0.038
    6  0.016  0.015  0.007  0.038
    7  0.016  0.015  0.007  0.038
    8  0.016  0.015  0.007  0.038
    9  0.015  0.016  0.007  0.038
   10  0.015  0.016  0.007  0.038
   11  0.015  0.016  0.007  0.038
   12  0.015  0.016  0.007  0.038
   13  0.057  0.000  0.019  0.077
   14  0.057  0.000  0.019  0.077
   15  0.057  0.000  0.019  0.077
   16  0.057  0.000  0.019  0.077
tot    0.589  0.127  0.211  0.927
 
band     4 # energy   -5.60838514 # occ.  2.00000000
 
ion      s      p      d    tot
    1  0.014  0.002  0.023  0.040
    2  0.014  0.002  0.023  0.040
    3  0.014  0.002  0.023  0.040
    4  0.014  0.002  0.023  0.040
    5  0.022  0.000  0.060  0.082
    6  0.022  0.000  0.060  0.081
    7  0.022  0.000  0.060  0.081
    8  0.022  0.000  0.060  0.081
    9  0.021  0.000  0.062  0.084
   10  0.021  0.000  0.062  0.084
   11  0.021  0.000  0.062  0.084
   12  0.021  0.000  0.062  0.084
   13  0.014  0.002  0.025  0.041
   14  0.014  0.002  0.025  0.041
   15  0.014  0.002  0.025  0.041
   16  0.014  0.002  0.025  0.041
tot    0.285  0.019  0.678  0.981
 
band     5 # energy   -5.33555876 # occ.  2.00000000
 
ion      s      p      d    tot
    1  0.007  0.002  0.011  0.020
    2  0.008  0.002  0.010  0.020
    3  0.000  0.002  0.021  0.023
    4  0.000  0.002  0.021  0.023
    5  0.000  0.001  0.100  0.102
    6  0.000  0.001  0.101  0.102
    7  0.038  0.001  0.044  0.084
    8  0.035  0.001  0.049  0.085
    9  0.048  0.000  0.051  0.099
   10  0.044  0.001  0.056  0.100
   11  0.000  0.001  0.117  0.118
   12  0.000  0.001  0.117  0.118
   13  0.009  0.003  0.014  0.026
   14  0.009  0.003  0.013  0.025
   15  0.000  0.003  0.028  0.031
   16  0.000  0.003  0.028  0.031
tot    0.198  0.026  0.782  1.006
 
band     6 # energy   -5.33549751 # occ.  2.00000000
 
ion      s      p      d    tot
    1  0.003  0.002  0.017  0.022
    2  0.003  0.002  0.017  0.022
    3  0.009  0.003  0.007  0.019
    4  0.000  0.002  0.021  0.023
    5  0.000  0.001  0.100  0.102
    6  0.046  0.001  0.033  0.080
    7  0.014  0.001  0.080  0.095
    8  0.014  0.001  0.081  0.096
    9  0.017  0.001  0.093  0.111
   10  0.017  0.001  0.094  0.111
   11  0.000  0.001  0.117  0.118
   12  0.057  0.000  0.037  0.095
   13  0.003  0.003  0.023  0.029
   14  0.003  0.003  0.023  0.029
   15  0.011  0.003  0.010  0.024
   16  0.000  0.003  0.028  0.031
tot    0.198  0.026  0.782  1.006
 
band     7 # energy   -5.33535645 # occ.  2.00000000
 
ion      s      p      d    tot
    1  0.001  0.002  0.019  0.022
    2  0.001  0.002  0.020  0.022
    3  0.002  0.002  0.018  0.022
    4  0.011  0.003  0.005  0.018
    5  0.055  0.001  0.021  0.076
    6  0.009  0.001  0.087  0.097
    7  0.003  0.001  0.096  0.100
    8  0.007  0.001  0.091  0.099
    9  0.004  0.001  0.112  0.116
   10  0.008  0.001  0.106  0.115
   11  0.068  0.000  0.022  0.091
   12  0.012  0.001  0.101  0.113
   13  0.002  0.003  0.026  0.030
   14  0.001  0.003  0.027  0.030
   15  0.002  0.003  0.024  0.029
   16  0.013  0.003  0.007  0.023
tot    0.198  0.026  0.782  1.006
 
band     8 # energy   -5.19921768 # occ.  2.00000000
 
ion      s      p      d    tot
    1  0.000  0.001  0.011  0.013
    2  0.001  0.001  0.006  0.007
    3  0.000  0.003  0.024  0.027
    4  0.000  0.003  0.024  0.027
    5  0.000  0.001  0.132  0.133
    6  0.001  0.001  0.129  0.131
    7  0.021  0.000  0.030  0.052
    8  0.015  0.001  0.060  0.076
    9  0.016  0.000  0.033  0.049
   10  0.011  0.001  0.064  0.076
   11  0.000  0.001  0.141  0.142
   12  0.000  0.001  0.138  0.140
   13  0.002  0.002  0.015  0.018
   14  0.002  0.001  0.008  0.011
   15  0.000  0.003  0.031  0.034
   16  0.000  0.003  0.032  0.035
tot    0.069  0.024  0.878  0.971
 
band     9 # energy   -5.19913557 # occ.  2.00000000
 
ion      s      p      d    tot
    1  0.000  0.002  0.015  0.017
    2  0.000  0.003  0.021  0.023
    3  0.001  0.001  0.006  0.007
    4  0.000  0.003  0.024  0.027
    5  0.000  0.001  0.130  0.132
    6  0.021  0.000  0.029  0.051
    7  0.004  0.001  0.112  0.117
    8  0.011  0.001  0.080  0.092
    9  0.003  0.001  0.120  0.124
   10  0.008  0.001  0.086  0.095
   11  0.000  0.001  0.139  0.140
   12  0.016  0.000  0.031  0.048
   13  0.001  0.002  0.019  0.023
   14  0.000  0.003  0.027  0.030
   15  0.002  0.001  0.007  0.010
   16  0.000  0.003  0.031  0.034
tot    0.069  0.024  0.878  0.971
 
band    10 # energy   -5.19882986 # occ.  2.00000000
 
ion      s      p      d    tot
    1  0.000  0.003  0.023  0.026
    2  0.000  0.003  0.022  0.025
    3  0.000  0.002  0.019  0.022
    4  0.001  0.000  0.001  0.002
    5  0.027  0.000  0.002  0.029
    6  0.006  0.001  0.105  0.112
    7  0.002  0.001  0.121  0.125
    8  0.002  0.001  0.123  0.126
    9  0.002  0.001  0.130  0.132
   10  0.001  0.001  0.132  0.134
   11  0.021  0.000  0.002  0.023
   12  0.004  0.001  0.113  0.118
   13  0.000  0.003  0.030  0.033
   14  0.000  0.003  0.029  0.032
   15  0.001  0.003  0.025  0.029
   16  0.003  0.000  0.001  0.004
tot    0.069  0.024  0.878  0.971
 
band    11 # energy   -4.82942446 # occ.  2.00000000
 
ion      s      p      d    tot
    1  0.007  0.001  0.016  0.024
    2  0.013  0.003  0.011  0.026
    3  0.001  0.000  0.022  0.023
    4  0.000  0.000  0.022  0.022
    5  0.000  0.001  0.111  0.112
    6  0.001  0.001  0.105  0.107
    7  0.010  0.004  0.032  0.045
    8  0.005  0.002  0.067  0.075
    9  0.003  0.005  0.025  0.034
   10  0.002  0.005  0.054  0.061
   11  0.000  0.005  0.089  0.094
   12  0.000  0.005  0.085  0.090
   13  0.017  0.002  0.047  0.066
   14  0.031  0.004  0.019  0.054
   15  0.002  0.000  0.077  0.080
   16  0.000  0.000  0.082  0.082
tot    0.092  0.038  0.865  0.994
 
band    12 # energy   -4.82936577 # occ.  2.00000000
 
ion      s      p      d    tot
    1  0.008  0.002  0.015  0.025
    2  0.001  0.000  0.021  0.023
    3  0.011  0.002  0.012  0.026
    4  0.000  0.000  0.022  0.022
    5  0.000  0.001  0.109  0.110
    6  0.008  0.003  0.041  0.053
    7  0.001  0.001  0.102  0.104
    8  0.006  0.002  0.063  0.071
    9  0.000  0.005  0.082  0.087
   10  0.002  0.005  0.051  0.058
   11  0.000  0.005  0.088  0.092
   12  0.003  0.005  0.033  0.041
   13  0.019  0.002  0.044  0.065
   14  0.003  0.000  0.075  0.079
   15  0.028  0.003  0.026  0.057
   16  0.001  0.000  0.080  0.081
tot    0.092  0.038  0.865  0.994
 
band    13 # energy   -4.82914085 # occ.  2.00000000
 
ion      s      p      d    tot
    1  0.001  0.000  0.022  0.023
    2  0.001  0.000  0.021  0.023
    3  0.003  0.001  0.019  0.023
    4  0.015  0.003  0.009  0.027
    5  0.011  0.004  0.017  0.032
    6  0.002  0.001  0.090  0.094
    7  0.001  0.001  0.102  0.104
    8  0.001  0.001  0.106  0.108
    9  0.000  0.005  0.082  0.087
   10  0.000  0.005  0.085  0.090
   11  0.004  0.005  0.013  0.022
   12  0.001  0.005  0.072  0.078
   13  0.002  0.000  0.078  0.080
   14  0.003  0.000  0.075  0.079
   15  0.008  0.001  0.065  0.075
   16  0.037  0.005  0.007  0.048
tot    0.092  0.038  0.865  0.994
 
band    14 # energy   -4.79474322 # occ.  2.00000000
 
ion      s      p      d    tot
    1  0.022  0.001  0.018  0.041
    2  0.012  0.002  0.059  0.072
    3  0.000  0.002  0.107  0.108
    4  0.001  0.002  0.102  0.105
    5  0.000  0.004  0.047  0.052
    6  0.000  0.004  0.049  0.054
    7  0.001  0.003  0.028  0.032
    8  0.002  0.001  0.009  0.013
    9  0.002  0.003  0.039  0.043
   10  0.003  0.001  0.027  0.031
   11  0.000  0.005  0.051  0.056
   12  0.000  0.005  0.052  0.058
   13  0.013  0.000  0.027  0.040
   14  0.007  0.000  0.062  0.069
   15  0.000  0.001  0.103  0.103
   16  0.001  0.001  0.099  0.100
tot    0.064  0.034  0.878  0.976
 
band    15 # energy   -4.79468116 # occ.  2.00000000
 
ion      s      p      d    tot
    1  0.004  0.002  0.089  0.095
    2  0.012  0.002  0.057  0.071
    3  0.016  0.001  0.040  0.058
    4  0.002  0.002  0.097  0.101
    5  0.000  0.004  0.046  0.050
    6  0.002  0.002  0.019  0.023
    7  0.001  0.003  0.027  0.031
    8  0.000  0.004  0.042  0.046
    9  0.002  0.003  0.039  0.043
   10  0.001  0.004  0.048  0.053
   11  0.000  0.005  0.050  0.055
   12  0.002  0.002  0.034  0.038
   13  0.003  0.000  0.088  0.091
   14  0.007  0.000  0.061  0.068
   15  0.010  0.000  0.046  0.056
   16  0.001  0.000  0.095  0.097
tot    0.064  0.034  0.878  0.976
 
band    16 # energy   -4.79453219 # occ.  2.00000000
 
ion      s      p      d    tot
    1  0.000  0.002  0.106  0.108
    2  0.002  0.002  0.097  0.101
    3  0.010  0.002  0.067  0.078
    4  0.023  0.001  0.014  0.038
    5  0.002  0.001  0.007  0.011
    6  0.001  0.003  0.031  0.036
    7  0.000  0.004  0.045  0.050
    8  0.000  0.004  0.049  0.054
    9  0.000  0.005  0.050  0.055
   10  0.000  0.005  0.053  0.058
   11  0.003  0.001  0.027  0.030
   12  0.001  0.003  0.042  0.046
   13  0.000  0.001  0.103  0.103
   14  0.001  0.000  0.095  0.097
   15  0.006  0.000  0.069  0.075
   16  0.014  0.000  0.023  0.037
tot    0.064  0.034  0.878  0.976
 
band    17 # energy   -4.75741598 # occ.  2.00000000
 
ion      s      p      d    tot
    1  0.013  0.000  0.058  0.071
    2  0.000  0.001  0.134  0.134
    3  0.000  0.001  0.134  0.134
    4  0.013  0.000  0.053  0.067
    5  0.001  0.002  0.060  0.063
    6  0.000  0.004  0.025  0.029
    7  0.000  0.004  0.025  0.029
    8  0.001  0.002  0.058  0.061
    9  0.000  0.001  0.030  0.031
   10  0.003  0.001  0.057  0.060
   11  0.003  0.001  0.058  0.062
   12  0.000  0.001  0.030  0.031
   13  0.003  0.001  0.035  0.039
   14  0.000  0.002  0.072  0.074
   15  0.000  0.002  0.072  0.074
   16  0.004  0.001  0.033  0.037
tot    0.041  0.022  0.934  0.997
 
band    18 # energy   -4.75728161 # occ.  2.00000000
 
ion      s      p      d    tot
    1  0.004  0.000  0.111  0.115
    2  0.019  0.000  0.022  0.040
    3  0.000  0.001  0.132  0.133
    4  0.003  0.000  0.114  0.118
    5  0.000  0.004  0.033  0.037
    6  0.000  0.004  0.025  0.030
    7  0.002  0.001  0.074  0.077
    8  0.000  0.004  0.035  0.039
    9  0.004  0.000  0.069  0.074
   10  0.001  0.001  0.038  0.040
   11  0.001  0.001  0.037  0.039
   12  0.000  0.001  0.031  0.032
   13  0.001  0.002  0.061  0.064
   14  0.005  0.000  0.017  0.022
   15  0.000  0.002  0.072  0.073
   16  0.001  0.002  0.063  0.065
tot    0.041  0.022  0.934  0.997
 
band    19 # energy   -4.75722740 # occ.  2.00000000
 
ion      s      p      d    tot
    1  0.003  0.000  0.115  0.119
    2  0.001  0.001  0.129  0.130
    3  0.019  0.000  0.018  0.038
    4  0.003  0.000  0.117  0.120
    5  0.000  0.004  0.032  0.036
    6  0.002  0.000  0.076  0.078
    7  0.000  0.004  0.027  0.031
    8  0.000  0.004  0.033  0.037
    9  0.000  0.001  0.032  0.033
   10  0.001  0.001  0.037  0.038
   11  0.001  0.001  0.036  0.038
   12  0.004  0.000  0.070  0.075
   13  0.001  0.002  0.063  0.066
   14  0.000  0.002  0.070  0.072
   15  0.005  0.000  0.015  0.021
   16  0.001  0.002  0.064  0.066
tot    0.041  0.022  0.933  0.996
 
band    20 # energy   -4.38898320 # occ.  2.00000000
 
ion      s      p      d    tot
    1  0.000  0.002  0.048  0.050
    2  0.000  0.003  0.069  0.071
    3  0.000  0.003  0.095  0.098
    4  0.000  0.003  0.092  0.095
    5  0.000  0.004  0.057  0.061
    6  0.000  0.004  0.058  0.062
    7  0.000  0.005  0.044  0.049
    8  0.000  0.006  0.032  0.038
    9  0.000  0.006  0.032  0.038
   10  0.000  0.007  0.023  0.031
   11  0.000  0.005  0.041  0.047
   12  0.000  0.005  0.043  0.048
   13  0.000  0.002  0.045  0.047
   14  0.000  0.003  0.065  0.068
   15  0.000  0.003  0.091  0.094
   16  0.000  0.003  0.088  0.091
tot    0.001  0.064  0.923  0.988
 
band    21 # energy   -4.38892919 # occ.  2.00000000
 
ion      s      p      d    tot
    1  0.000  0.003  0.085  0.088
    2  0.000  0.003  0.068  0.071
    3  0.000  0.003  0.063  0.066
    4  0.000  0.003  0.088  0.091
    5  0.000  0.004  0.054  0.058
    6  0.000  0.005  0.041  0.046
    7  0.000  0.005  0.044  0.049
    8  0.000  0.004  0.053  0.057
    9  0.000  0.006  0.032  0.038
   10  0.000  0.006  0.038  0.044
   11  0.000  0.005  0.040  0.045
   12  0.000  0.006  0.030  0.036
   13  0.000  0.003  0.081  0.084
   14  0.000  0.003  0.065  0.067
   15  0.000  0.002  0.060  0.062
   16  0.000  0.003  0.084  0.086
tot    0.001  0.064  0.923  0.988
 
band    22 # energy   -4.38881609 # occ.  2.00000000
 
ion      s      p      d    tot
    1  0.000  0.003  0.095  0.098
    2  0.000  0.003  0.091  0.094
    3  0.000  0.003  0.070  0.072
    4  0.000  0.002  0.048  0.050
    5  0.000  0.006  0.033  0.039
    6  0.000  0.005  0.044  0.049
    7  0.000  0.004  0.056  0.060
    8  0.000  0.004  0.058  0.062
    9  0.000  0.005  0.041  0.046
   10  0.000  0.005  0.043  0.048
   11  0.000  0.007  0.024  0.031
   12  0.000  0.006  0.032  0.039
   13  0.000  0.003  0.091  0.094
   14  0.000  0.003  0.087  0.090
   15  0.000  0.003  0.066  0.068
   16  0.000  0.002  0.045  0.047
tot    0.001  0.064  0.923  0.988
 
band    23 # energy   -3.85174806 # occ.  2.00000000
 
ion      s      p      d    tot
    1  0.000  0.000  0.017  0.018
    2  0.000  0.000  0.094  0.094
    3  0.000  0.000  0.133  0.134
    4  0.000  0.000  0.126  0.126
    5  0.000  0.007  0.030  0.037
    6  0.000  0.006  0.031  0.038
    7  0.000  0.007  0.025  0.032
    8  0.000  0.009  0.013  0.022
    9  0.000  0.007  0.025  0.032
   10  0.000  0.009  0.011  0.020
   11  0.000  0.006  0.030  0.037
   12  0.000  0.006  0.032  0.038
   13  0.000  0.000  0.017  0.017
   14  0.000  0.000  0.087  0.087
   15  0.000  0.000  0.122  0.123
   16  0.000  0.000  0.115  0.116
tot    0.001  0.061  0.907  0.969
 
band    24 # energy   -3.85160155 # occ.  2.00000000
 
ion      s      p      d    tot
    1  0.000  0.000  0.126  0.126
    2  0.000  0.000  0.049  0.050
    3  0.000  0.000  0.092  0.092
    4  0.000  0.000  0.103  0.103
    5  0.000  0.007  0.026  0.034
    6  0.000  0.007  0.025  0.032
    7  0.000  0.009  0.018  0.026
    8  0.000  0.007  0.030  0.037
    9  0.000  0.008  0.017  0.025
   10  0.000  0.006  0.031  0.037
   11  0.000  0.007  0.026  0.033
   12  0.000  0.007  0.024  0.032
   13  0.000  0.000  0.116  0.116
   14  0.000  0.000  0.046  0.046
   15  0.000  0.000  0.085  0.085
   16  0.000  0.000  0.094  0.095
tot    0.001  0.061  0.907  0.969
 
band    25 # energy   -3.85144946 # occ.  2.00000000
 
ion      s      p      d    tot
    1  0.000  0.000  0.134  0.135
    2  0.000  0.000  0.134  0.134
    3  0.000  0.000  0.052  0.053
    4  0.000  0.000  0.049  0.050
    5  0.000  0.009  0.018  0.026
    6  0.000  0.008  0.018  0.027
    7  0.000  0.006  0.031  0.038
    8  0.000  0.006  0.031  0.038
    9  0.000  0.006  0.032  0.038
   10  0.000  0.006  0.032  0.038
   11  0.000  0.008  0.017  0.025
   12  0.000  0.008  0.017  0.025
   13  0.000  0.000  0.123  0.123
   14  0.000  0.000  0.123  0.123
   15  0.000  0.000  0.049  0.049
   16  0.000  0.000  0.046  0.046
tot    0.001  0.061  0.907  0.969
 
band    26 # energy   -3.65112844 # occ.  2.00000000
 
ion      s      p      d    tot
    1  0.000  0.002  0.082  0.084
    2  0.000  0.002  0.083  0.085
    3  0.000  0.002  0.083  0.086
    4  0.000  0.002  0.081  0.083
    5  0.001  0.001  0.092  0.095
    6  0.001  0.001  0.086  0.089
    7  0.001  0.001  0.087  0.089
    8  0.001  0.001  0.089  0.091
    9  0.000  0.004  0.006  0.011
   10  0.000  0.004  0.006  0.011
   11  0.000  0.004  0.007  0.012
   12  0.000  0.004  0.006  0.011
   13  0.000  0.001  0.059  0.061
   14  0.000  0.001  0.060  0.061
   15  0.000  0.001  0.060  0.061
   16  0.000  0.001  0.058  0.060
tot    0.008  0.035  0.947  0.990
 
band    27 # energy   -3.64140125 # occ.  2.00000000
 
ion      s      p      d    tot
    1  0.000  0.000  0.029  0.029
    2  0.000  0.000  0.036  0.036
    3  0.000  0.000  0.037  0.037
    4  0.000  0.000  0.022  0.023
    5  0.000  0.000  0.107  0.108
    6  0.000  0.000  0.080  0.080
    7  0.000  0.000  0.080  0.080
    8  0.000  0.000  0.097  0.097
    9  0.000  0.000  0.080  0.081
   10  0.000  0.000  0.093  0.094
   11  0.000  0.000  0.110  0.111
   12  0.000  0.000  0.081  0.081
   13  0.000  0.000  0.031  0.031
   14  0.000  0.000  0.040  0.040
   15  0.000  0.000  0.040  0.040
   16  0.000  0.000  0.022  0.023
tot    0.001  0.003  0.985  0.989
 
band    28 # energy   -3.64130744 # occ.  2.00000000
 
ion      s      p      d    tot
    1  0.000  0.000  0.037  0.037
    2  0.000  0.000  0.026  0.026
    3  0.000  0.000  0.024  0.025
    4  0.000  0.000  0.037  0.037
    5  0.000  0.000  0.079  0.079
    6  0.000  0.000  0.103  0.104
    7  0.000  0.000  0.102  0.103
    8  0.000  0.000  0.078  0.078
    9  0.000  0.000  0.099  0.099
   10  0.000  0.000  0.079  0.079
   11  0.000  0.000  0.081  0.081
   12  0.000  0.000  0.106  0.106
   13  0.000  0.000  0.040  0.040
   14  0.000  0.000  0.027  0.027
   15  0.000  0.000  0.025  0.025
   16  0.000  0.000  0.041  0.041
tot    0.001  0.003  0.985  0.989
 
band    29 # energy   -3.64121951 # occ.  2.00000000
 
ion      s      p      d    tot
    1  0.000  0.000  0.028  0.028
    2  0.000  0.000  0.030  0.030
    3  0.000  0.000  0.031  0.032
    4  0.000  0.000  0.035  0.035
    5  0.000  0.000  0.083  0.083
    6  0.000  0.000  0.089  0.090
    7  0.000  0.000  0.092  0.092
    8  0.000  0.000  0.099  0.099
    9  0.000  0.000  0.092  0.093
   10  0.000  0.000  0.098  0.098
   11  0.000  0.000  0.084  0.084
   12  0.000  0.000  0.090  0.091
   13  0.000  0.000  0.029  0.029
   14  0.000  0.000  0.032  0.032
   15  0.000  0.000  0.034  0.034
   16  0.000  0.000  0.038  0.038
tot    0.001  0.003  0.985  0.989
 
band    30 # energy   -3.63085079 # occ.  2.00000000
 
ion      s      p      d    tot
    1  0.001  0.000  0.002  0.003
    2  0.001  0.000  0.002  0.003
    3  0.001  0.000  0.002  0.003
    4  0.001  0.000  0.002  0.003
    5  0.000  0.005  0.068  0.074
    6  0.000  0.005  0.069  0.075
    7  0.000  0.005  0.067  0.072
    8  0.000  0.005  0.066  0.071
    9  0.001  0.002  0.149  0.152
   10  0.001  0.002  0.150  0.153
   11  0.001  0.002  0.147  0.150
   12  0.001  0.002  0.145  0.148
   13  0.001  0.001  0.018  0.020
   14  0.001  0.001  0.019  0.021
   15  0.001  0.001  0.019  0.021
   16  0.001  0.001  0.019  0.021
tot    0.012  0.033  0.945  0.990
 
band    31 # energy   -3.55587194 # occ.  2.00000000
 
ion      s      p      d    tot
    1  0.000  0.000  0.014  0.014
    2  0.000  0.000  0.014  0.014
    3  0.000  0.000  0.014  0.014
    4  0.000  0.000  0.014  0.014
    5  0.000  0.000  0.078  0.078
    6  0.000  0.000  0.078  0.078
    7  0.000  0.000  0.078  0.078
    8  0.000  0.000  0.079  0.079
    9  0.000  0.000  0.137  0.137
   10  0.000  0.000  0.138  0.138
   11  0.000  0.000  0.137  0.137
   12  0.000  0.000  0.137  0.137
   13  0.000  0.000  0.019  0.019
   14  0.000  0.000  0.019  0.019
   15  0.000  0.000  0.019  0.019
   16  0.000  0.000  0.019  0.019
tot    0.000  0.000  0.992  0.992
 
band    32 # energy   -3.55572567 # occ.  2.00000000
 
ion      s      p      d    tot
    1  0.000  0.000  0.014  0.014
    2  0.000  0.000  0.014  0.014
    3  0.000  0.000  0.014  0.014
    4  0.000  0.000  0.014  0.014
    5  0.000  0.000  0.078  0.078
    6  0.000  0.000  0.078  0.078
    7  0.000  0.000  0.078  0.078
    8  0.000  0.000  0.078  0.078
    9  0.000  0.000  0.137  0.137
   10  0.000  0.000  0.137  0.137
   11  0.000  0.000  0.137  0.137
   12  0.000  0.000  0.137  0.137
   13  0.000  0.000  0.019  0.019
   14  0.000  0.000  0.019  0.019
   15  0.000  0.000  0.019  0.019
   16  0.000  0.000  0.019  0.019
tot    0.000  0.000  0.992  0.992
 
band    33 # energy   -3.51910769 # occ.  2.00000000
 
ion      s      p      d    tot
    1  0.000  0.000  0.008  0.008
    2  0.000  0.000  0.009  0.009
    3  0.000  0.000  0.009  0.009
    4  0.000  0.000  0.009  0.009
    5  0.000  0.000  0.130  0.130
    6  0.000  0.000  0.127  0.128
    7  0.000  0.000  0.129  0.129
    8  0.000  0.000  0.131  0.131
    9  0.000  0.000  0.092  0.093
   10  0.000  0.000  0.090  0.090
   11  0.000  0.000  0.091  0.091
   12  0.000  0.000  0.094  0.094
   13  0.000  0.000  0.019  0.019
   14  0.000  0.000  0.019  0.019
   15  0.000  0.000  0.018  0.018
   16  0.000  0.000  0.019  0.019
tot    0.000  0.001  0.995  0.996
 
band    34 # energy   -3.51898236 # occ.  2.00000000
 
ion      s      p      d    tot
    1  0.000  0.000  0.009  0.009
    2  0.000  0.000  0.008  0.008
    3  0.000  0.000  0.009  0.009
    4  0.000  0.000  0.009  0.009
    5  0.000  0.000  0.128  0.128
    6  0.000  0.000  0.128  0.128
    7  0.000  0.000  0.131  0.131
    8  0.000  0.000  0.130  0.130
    9  0.000  0.000  0.090  0.090
   10  0.000  0.000  0.090  0.090
   11  0.000  0.000  0.093  0.093
   12  0.000  0.000  0.094  0.094
   13  0.000  0.000  0.019  0.019
   14  0.000  0.000  0.019  0.019
   15  0.000  0.000  0.018  0.018
   16  0.000  0.000  0.018  0.018
tot    0.000  0.001  0.995  0.996
 
band    35 # energy   -3.51292070 # occ.  2.00000000
 
ion      s      p      d    tot
    1  0.000  0.000  0.009  0.010
    2  0.000  0.000  0.009  0.009
    3  0.000  0.000  0.027  0.027
    4  0.000  0.000  0.027  0.027
    5  0.000  0.000  0.140  0.140
    6  0.000  0.000  0.142  0.142
    7  0.000  0.000  0.046  0.046
    8  0.000  0.000  0.049  0.049
    9  0.000  0.000  0.052  0.052
   10  0.000  0.000  0.057  0.057
   11  0.000  0.000  0.165  0.165
   12  0.000  0.000  0.162  0.162
   13  0.000  0.000  0.014  0.014
   14  0.000  0.000  0.013  0.013
   15  0.000  0.000  0.040  0.040
   16  0.000  0.000  0.039  0.039
tot    0.000  0.002  0.990  0.992
 
band    36 # energy   -3.51277700 # occ.  2.00000000
 
ion      s      p      d    tot
    1  0.000  0.000  0.021  0.021
    2  0.000  0.000  0.020  0.021
    3  0.000  0.000  0.005  0.005
    4  0.000  0.000  0.026  0.027
    5  0.000  0.000  0.142  0.142
    6  0.000  0.000  0.026  0.026
    7  0.000  0.000  0.104  0.105
    8  0.000  0.000  0.105  0.105
    9  0.000  0.000  0.124  0.124
   10  0.000  0.000  0.125  0.125
   11  0.000  0.000  0.160  0.160
   12  0.000  0.000  0.028  0.028
   13  0.000  0.000  0.029  0.029
   14  0.000  0.000  0.029  0.029
   15  0.000  0.000  0.007  0.007
   16  0.000  0.000  0.039  0.040
tot    0.000  0.002  0.990  0.992
 
band    37 # energy   -3.51235415 # occ.  2.00000000
 
ion      s      p      d    tot
    1  0.000  0.000  0.025  0.025
    2  0.000  0.000  0.025  0.026
    3  0.000  0.000  0.022  0.022
    4  0.000  0.000  0.000  0.000
    5  0.000  0.000  0.001  0.001
    6  0.000  0.000  0.118  0.118
    7  0.000  0.000  0.131  0.131
    8  0.000  0.000  0.126  0.126
    9  0.000  0.000  0.153  0.153
   10  0.000  0.000  0.149  0.149
   11  0.000  0.000  0.002  0.002
   12  0.000  0.000  0.133  0.133
   13  0.000  0.000  0.035  0.036
   14  0.000  0.000  0.037  0.037
   15  0.000  0.000  0.033  0.033
   16  0.000  0.000  0.000  0.000
tot    0.000  0.002  0.990  0.992
 
band    38 # energy   -3.38834564 # occ.  2.00000000
 
ion      s      p      d    tot
    1  0.000  0.000  0.074  0.074
    2  0.000  0.000  0.074  0.074
    3  0.000  0.000  0.074  0.074
    4  0.000  0.000  0.074  0.074
    5  0.000  0.000  0.029  0.029
    6  0.000  0.000  0.029  0.029
    7  0.000  0.000  0.029  0.029
    8  0.000  0.000  0.029  0.029
    9  0.000  0.000  0.013  0.013
   10  0.000  0.000  0.013  0.013
   11  0.000  0.000  0.013  0.013
   12  0.000  0.000  0.013  0.013
   13  0.000  0.000  0.132  0.132
   14  0.000  0.000  0.132  0.132
   15  0.000  0.000  0.132  0.132
   16  0.000  0.000  0.132  0.132
tot    0.000  0.000  0.992  0.992
 
band    39 # energy   -3.38819561 # occ.  2.00000000
 
ion      s      p      d    tot
    1  0.000  0.000  0.074  0.074
    2  0.000  0.000  0.074  0.074
    3  0.000  0.000  0.074  0.074
    4  0.000  0.000  0.074  0.074
    5  0.000  0.000  0.029  0.029
    6  0.000  0.000  0.029  0.029
    7  0.000  0.000  0.029  0.029
    8  0.000  0.000  0.029  0.029
    9  0.000  0.000  0.013  0.013
   10  0.000  0.000  0.013  0.013
   11  0.000  0.000  0.013  0.013
   12  0.000  0.000  0.013  0.013
   13  0.000  0.000  0.132  0.132
   14  0.000  0.000  0.132  0.132
   15  0.000  0.000  0.132  0.132
   16  0.000  0.000  0.132  0.132
tot    0.000  0.000  0.992  0.992
 
band    40 # energy   -3.38059901 # occ.  2.00000000
 
ion      s      p      d    tot
    1  0.004  0.000  0.093  0.098
    2  0.004  0.000  0.095  0.099
    3  0.004  0.000  0.096  0.100
    4  0.004  0.000  0.096  0.100
    5  0.001  0.014  0.000  0.016
    6  0.001  0.014  0.000  0.016
    7  0.001  0.014  0.000  0.016
    8  0.001  0.014  0.000  0.015
    9  0.001  0.015  0.000  0.016
   10  0.001  0.015  0.000  0.016
   11  0.001  0.015  0.000  0.016
   12  0.001  0.015  0.000  0.016
   13  0.005  0.000  0.100  0.105
   14  0.005  0.000  0.101  0.106
   15  0.005  0.000  0.103  0.107
   16  0.005  0.000  0.102  0.107
tot    0.045  0.116  0.787  0.948
 
band    41 # energy   -3.34975930 # occ.  2.00000000
 
ion      s      p      d    tot
    1  0.000  0.000  0.021  0.022
    2  0.000  0.000  0.022  0.022
    3  0.002  0.001  0.061  0.064
    4  0.005  0.002  0.158  0.165
    5  0.003  0.002  0.102  0.107
    6  0.001  0.016  0.033  0.051
    7  0.000  0.022  0.005  0.028
    8  0.000  0.022  0.005  0.028
    9  0.000  0.024  0.005  0.029
   10  0.000  0.024  0.005  0.029
   11  0.003  0.002  0.095  0.100
   12  0.001  0.018  0.031  0.050
   13  0.000  0.000  0.020  0.020
   14  0.000  0.000  0.020  0.020
   15  0.002  0.001  0.065  0.067
   16  0.005  0.003  0.175  0.182
tot    0.023  0.139  0.823  0.985
 
band    42 # energy   -3.34943885 # occ.  2.00000000
 
ion      s      p      d    tot
    1  0.001  0.001  0.039  0.040
    2  0.002  0.001  0.084  0.087
    3  0.003  0.002  0.117  0.122
    4  0.000  0.000  0.023  0.024
    5  0.000  0.022  0.006  0.029
    6  0.003  0.008  0.073  0.084
    7  0.002  0.013  0.048  0.063
    8  0.001  0.020  0.017  0.037
    9  0.001  0.014  0.045  0.061
   10  0.000  0.021  0.016  0.038
   11  0.000  0.024  0.006  0.030
   12  0.002  0.008  0.069  0.079
   13  0.001  0.001  0.039  0.041
   14  0.002  0.001  0.090  0.094
   15  0.004  0.002  0.128  0.134
   16  0.000  0.000  0.021  0.022
tot    0.023  0.139  0.823  0.985
 
band    43 # energy   -3.34920375 # occ.  2.00000000
 
ion      s      p      d    tot
    1  0.004  0.002  0.138  0.144
    2  0.002  0.001  0.092  0.096
    3  0.000  0.000  0.018  0.018
    4  0.000  0.000  0.015  0.015
    5  0.000  0.023  0.001  0.024
    6  0.000  0.023  0.003  0.025
    7  0.002  0.012  0.055  0.069
    8  0.003  0.005  0.087  0.095
    9  0.002  0.013  0.052  0.066
   10  0.003  0.005  0.081  0.089
   11  0.000  0.025  0.001  0.026
   12  0.000  0.025  0.002  0.027
   13  0.004  0.002  0.152  0.159
   14  0.003  0.001  0.100  0.104
   15  0.000  0.000  0.015  0.016
   16  0.000  0.000  0.012  0.013
tot    0.023  0.139  0.823  0.985
 
band    44 # energy   -3.34226041 # occ.  2.00000000
 
ion      s      p      d    tot
    1  0.000  0.000  0.142  0.142
    2  0.000  0.000  0.142  0.142
    3  0.000  0.000  0.142  0.142
    4  0.000  0.000  0.142  0.142
    5  0.000  0.000  0.020  0.020
    6  0.000  0.000  0.020  0.020
    7  0.000  0.000  0.020  0.020
    8  0.000  0.000  0.020  0.020
    9  0.000  0.000  0.018  0.018
   10  0.000  0.000  0.018  0.018
   11  0.000  0.000  0.018  0.018
   12  0.000  0.000  0.018  0.018
   13  0.000  0.000  0.068  0.068
   14  0.000  0.000  0.068  0.068
   15  0.000  0.000  0.068  0.068
   16  0.000  0.000  0.068  0.068
tot    0.000  0.001  0.992  0.993
 
band    45 # energy   -3.34211264 # occ.  2.00000000
 
ion      s      p      d    tot
    1  0.000  0.000  0.142  0.142
    2  0.000  0.000  0.142  0.142
    3  0.000  0.000  0.142  0.142
    4  0.000  0.000  0.143  0.143
    5  0.000  0.000  0.020  0.020
    6  0.000  0.000  0.020  0.020
    7  0.000  0.000  0.020  0.020
    8  0.000  0.000  0.020  0.020
    9  0.000  0.000  0.018  0.018
   10  0.000  0.000  0.018  0.018
   11  0.000  0.000  0.018  0.018