<?xml version="1.0" encoding="ISO-8859-1"?>
<modeling>
 <generator>
  <i name="program" type="string">vasp </i>
  <i name="version" type="string">5.4.4.18Apr17-6-g9f103f2a35  </i>
  <i name="subversion" type="string">(build Aug 07 2018 15:16:41) complex            parallel </i>
  <i name="platform" type="string">LinuxIFC </i>
  <i name="date" type="string">2019 10 18 </i>
  <i name="time" type="string">01:18:37 </i>
 </generator>
 <incar>
  <i type="string" name="PREC">normal</i>
  <i type="int" name="IBRION">     2</i>
  <i name="EDIFFG">     -0.03000000</i>
  <i type="int" name="NSW">     0</i>
  <i type="int" name="ISIF">     0</i>
  <i type="int" name="ISYM">     0</i>
  <i name="ENCUT">    350.00000000</i>
  <v name="RWIGS">      1.50000000</v>
  <i type="string" name="LREAL"> Auto</i>
  <i type="logical" name="LWAVE"> F  </i>
  <i type="logical" name="LCHARG"> F  </i>
  <i type="int" name="LORBIT">     0</i>
  <v type="int" name="KPOINT_BSE">    -1     0     0     0</v>
  <i type="string" name="GGA"> RP</i>
 </incar>
 <structure name="primitive_cell" >
  <crystal>
   <varray name="basis" >
    <v>       5.19996363       0.00000000       0.00000000 </v>
    <v>       2.59998182       4.50330060       0.00000000 </v>
    <v>       0.00000000       0.00000000      26.36862879 </v>
   </varray>
   <i name="volume">    617.47416323 </i>
   <varray name="rec_basis" >
    <v>       0.19230904      -0.11102967       0.00000000 </v>
    <v>       0.00000000       0.22205935       0.00000000 </v>
    <v>       0.00000000       0.00000000       0.03792385 </v>
   </varray>
  </crystal>
  <varray name="positions" >
   <v>       0.00000000       0.00000000       0.37923853 </v>
   <v>       0.16666667       0.16666667       0.45974618 </v>
   <v>       0.00000000      -0.50000000       0.37923853 </v>
   <v>      -0.50000000      -0.50000000       0.37923853 </v>
   <v>      -0.50000000       0.00000000       0.37923853 </v>
   <v>       0.16666667      -0.33333333       0.45974618 </v>
   <v>      -0.33333333       0.16666667       0.45974618 </v>
   <v>      -0.33333333      -0.33333333       0.45974618 </v>
   <v>       0.33332267      -0.16666100      -0.46129042 </v>
   <v>      -0.16666407       0.33331957      -0.46128923 </v>
   <v>      -0.16666758      -0.16665878      -0.46128910 </v>
   <v>       0.33333543       0.33332721      -0.46129018 </v>
   <v>      -0.00000436       0.00000402      -0.38220175 </v>
   <v>      -0.49999556       0.00000441      -0.38220262 </v>
   <v>      -0.49999616       0.49999738      -0.38220211 </v>
   <v>      -0.00000051      -0.49999570      -0.38219952 </v>
  </varray>
 </structure>
 <varray name="primitive_index" >
  <v type="int" >        1 </v>
  <v type="int" >        5 </v>
  <v type="int" >        3 </v>
  <v type="int" >        4 </v>
  <v type="int" >        2 </v>
  <v type="int" >        7 </v>
  <v type="int" >        6 </v>
  <v type="int" >        8 </v>
  <v type="int" >       12 </v>
  <v type="int" >        9 </v>
  <v type="int" >       11 </v>
  <v type="int" >       10 </v>
  <v type="int" >       13 </v>
  <v type="int" >       14 </v>
  <v type="int" >       16 </v>
  <v type="int" >       15 </v>
 </varray>
 <kpoints>
  <generation param="Monkhorst-Pack">
   <v type="int" name="divisions">       5        5        1 </v>
   <v name="usershift">      0.00000000       0.00000000       0.00000000 </v>
   <v name="genvec1">      0.20000000       0.00000000       0.00000000 </v>
   <v name="genvec2">      0.00000000       0.20000000       0.00000000 </v>
   <v name="genvec3">      0.00000000       0.00000000       1.00000000 </v>
   <v name="shift">      0.00000000       0.00000000       0.00000000 </v>
  </generation>
  <varray name="kpointlist" >
   <v>       0.00000000       0.00000000       0.00000000 </v>
   <v>       0.20000000      -0.00000000       0.00000000 </v>
   <v>       0.40000000      -0.00000000       0.00000000 </v>
   <v>       0.00000000       0.20000000       0.00000000 </v>
   <v>       0.20000000       0.20000000       0.00000000 </v>
   <v>       0.40000000       0.20000000       0.00000000 </v>
   <v>      -0.40000000       0.20000000       0.00000000 </v>
   <v>      -0.20000000       0.20000000       0.00000000 </v>
   <v>       0.00000000       0.40000000       0.00000000 </v>
   <v>       0.20000000       0.40000000       0.00000000 </v>
   <v>       0.40000000       0.40000000       0.00000000 </v>
   <v>      -0.40000000       0.40000000       0.00000000 </v>
   <v>      -0.20000000       0.40000000       0.00000000 </v>
  </varray>
  <varray name="weights" >
   <v>       0.04000000 </v>
   <v>       0.08000000 </v>
   <v>       0.08000000 </v>
   <v>       0.08000000 </v>
   <v>       0.08000000 </v>
   <v>       0.08000000 </v>
   <v>       0.08000000 </v>
   <v>       0.08000000 </v>
   <v>       0.08000000 </v>
   <v>       0.08000000 </v>
   <v>       0.08000000 </v>
   <v>       0.08000000 </v>
   <v>       0.08000000 </v>
  </varray>
 </kpoints>
 <parameters>
  <separator name="general" >
   <i type="string" name="SYSTEM">unknown system</i>
   <i type="logical" name="LCOMPAT"> F  </i>
  </separator>
  <separator name="electronic" >
   <i type="string" name="PREC">normal</i>
   <i name="ENMAX">    350.00000000</i>
   <i name="ENAUG">    586.98000000</i>
   <i name="EDIFF">      0.00010000</i>
   <i type="int" name="IALGO">    38</i>
   <i type="int" name="IWAVPR">    10</i>
   <i type="int" name="NBANDS">   108</i>
   <i name="NELECT">    176.00000000</i>
   <i type="int" name="TURBO">     0</i>
   <i type="int" name="IRESTART">     0</i>
   <i type="int" name="NREBOOT">     0</i>
   <i type="int" name="NMIN">     0</i>
   <i name="EREF">      0.00000000</i>
   <separator name="electronic smearing" >
    <i type="int" name="ISMEAR">     1</i>
    <i name="SIGMA">      0.20000000</i>
    <i name="KSPACING">      0.50000000</i>
    <i type="logical" name="KGAMMA"> T  </i>
   </separator>
   <separator name="electronic projectors" >
    <i type="logical" name="LREAL"> T  </i>
    <v name="ROPT">     -0.00050000</v>
    <i type="int" name="LMAXPAW">  -100</i>
    <i type="int" name="LMAXMIX">     2</i>
    <i type="logical" name="NLSPLINE"> F  </i>
   </separator>
   <separator name="electronic startup" >
    <i type="int" name="ISTART">     0</i>
    <i type="int" name="ICHARG">     2</i>
    <i type="int" name="INIWAV">     1</i>
   </separator>
   <separator name="electronic spin" >
    <i type="int" name="ISPIN">     1</i>
    <i type="logical" name="LNONCOLLINEAR"> F  </i>
    <v name="MAGMOM">      1.00000000      1.00000000      1.00000000      1.00000000      1.00000000      1.00000000      1.00000000      1.00000000      1.00000000      1.00000000      1.00000000      1.00000000      1.00000000      1.00000000      1.00000000      1.00000000</v>
    <i name="NUPDOWN">     -1.00000000</i>
    <i type="logical" name="LSORBIT"> F  </i>
    <v name="SAXIS">      0.00000000      0.00000000      1.00000000</v>
    <i type="logical" name="LSPIRAL"> F  </i>
    <v name="QSPIRAL">      0.00000000      0.00000000      0.00000000</v>
    <i type="logical" name="LZEROZ"> F  </i>
   </separator>
   <separator name="electronic exchange-correlation" >
    <i type="logical" name="LASPH"> F  </i>
    <i type="logical" name="LMETAGGA"> F  </i>
   </separator>
   <separator name="electronic convergence" >
    <i type="int" name="NELM">    60</i>
    <i type="int" name="NELMDL">    -5</i>
    <i type="int" name="NELMIN">     2</i>
    <i name="ENINI">    350.00000000</i>
    <separator name="electronic convergence detail" >
     <i type="logical" name="LDIAG"> T  </i>
     <i type="logical" name="LSUBROT"> F  </i>
     <i name="WEIMIN">      0.00000000</i>
     <i name="EBREAK">      0.00000023</i>
     <i name="DEPER">      0.30000000</i>
     <i type="int" name="NRMM">     4</i>
     <i name="TIME">      0.40000000</i>
    </separator>
   </separator>
   <separator name="electronic mixer" >
    <i name="AMIX">      0.40000000</i>
    <i name="BMIX">      1.00000000</i>
    <i name="AMIN">      0.10000000</i>
    <i name="AMIX_MAG">      1.60000000</i>
    <i name="BMIX_MAG">      1.00000000</i>
    <separator name="electronic mixer details" >
     <i type="int" name="IMIX">     4</i>
     <i type="logical" name="MIXFIRST"> F  </i>
     <i type="int" name="MAXMIX">   -45</i>
     <i name="WC">    100.00000000</i>
     <i type="int" name="INIMIX">     1</i>
     <i type="int" name="MIXPRE">     1</i>
     <i type="int" name="MREMOVE">     5</i>
    </separator>
   </separator>
   <separator name="electronic dipolcorrection" >
    <i type="logical" name="LDIPOL"> F  </i>
    <i type="logical" name="LMONO"> F  </i>
    <i type="int" name="IDIPOL">     0</i>
    <i name="EPSILON">      1.00000000</i>
    <v name="DIPOL">   -100.00000000   -100.00000000   -100.00000000</v>
    <i name="EFIELD">      0.00000000</i>
   </separator>
  </separator>
  <separator name="grids" >
   <i type="int" name="NGX">    24</i>
   <i type="int" name="NGY">    24</i>
   <i type="int" name="NGZ">   126</i>
   <i type="int" name="NGXF">    48</i>
   <i type="int" name="NGYF">    48</i>
   <i type="int" name="NGZF">   252</i>
   <i type="logical" name="ADDGRID"> F  </i>
  </separator>
  <separator name="ionic" >
   <i type="int" name="NSW">     0</i>
   <i type="int" name="IBRION">    -1</i>
   <i type="int" name="MDALGO">     0</i>
   <i type="int" name="ISIF">     0</i>
   <i name="PSTRESS">      0.00000000</i>
   <i name="EDIFFG">     -0.03000000</i>
   <i type="int" name="NFREE">     1</i>
   <i name="POTIM">      0.50000000</i>
   <i name="SMASS">     -3.00000000</i>
   <i name="SCALEE">      1.00000000</i>
  </separator>
  <separator name="ionic md" >
   <i name="TEBEG">      0.00010000</i>
   <i name="TEEND">      0.00010000</i>
   <i type="int" name="NBLOCK">     1</i>
   <i type="int" name="KBLOCK">     1</i>
   <i type="int" name="NPACO">   256</i>
   <i name="APACO">     16.00000000</i>
  </separator>
  <separator name="symmetry" >
   <i type="int" name="ISYM">     0</i>
   <i name="SYMPREC">      0.00001000</i>
  </separator>
  <separator name="dos" >
   <i type="int" name="LORBIT">     0</i>
   <v name="RWIGS">      1.50000000</v>
   <i type="int" name="NEDOS">   301</i>
   <i name="EMIN">     10.00000000</i>
   <i name="EMAX">    -10.00000000</i>
   <i name="EFERMI">      0.00000000</i>
  </separator>
  <separator name="writing" >
   <i type="int" name="NWRITE">     2</i>
   <i type="logical" name="LWAVE"> F  </i>
   <i type="logical" name="LDOWNSAMPLE"> F  </i>
   <i type="logical" name="LCHARG"> F  </i>
   <i type="logical" name="LPARD"> F  </i>
   <i type="logical" name="LVTOT"> F  </i>
   <i type="logical" name="LVHAR"> F  </i>
   <i type="logical" name="LELF"> F  </i>
   <i type="logical" name="LOPTICS"> F  </i>
   <v name="STM">      0.00000000      0.00000000      0.00000000      0.00000000      0.00000000      0.00000000      0.00000000</v>
  </separator>
  <separator name="performance" >
   <i type="int" name="NPAR">     4</i>
   <i type="int" name="NSIM">     4</i>
   <i type="int" name="NBLK">    -1</i>
   <i type="logical" name="LPLANE"> T  </i>
   <i type="logical" name="LSCALAPACK"> T  </i>
   <i type="logical" name="LSCAAWARE"> F  </i>
   <i type="logical" name="LSCALU"> F  </i>
   <i type="logical" name="LASYNC"> F  </i>
   <i type="logical" name="LORBITALREAL"> F  </i>
  </separator>
  <separator name="miscellaneous" >
   <i type="int" name="IDIOT">     3</i>
   <i type="int" name="ISPECIAL">     0</i>
   <i type="logical" name="LMUSIC"> F  </i>
   <v name="POMASS">     63.54600000</v>
   <v name="DARWINR">      0.00000000</v>
   <v name="DARWINV">      1.00000000</v>
   <i type="logical" name="LCORR"> T  </i>
  </separator>
  <i type="logical" name="GGA_COMPAT"> T  </i>
  <i type="logical" name="LBERRY"> F  </i>
  <i type="int" name="ICORELEVEL">     0</i>
  <i type="logical" name="LDAU"> F  </i>
  <i type="int" name="I_CONSTRAINED_M">     0</i>
  <separator name="electronic exchange-correlation" >
   <i type="string" name="GGA">RP</i>
   <i type="int" name="VOSKOWN">     0</i>
   <i type="logical" name="LHFCALC"> F  </i>
   <i type="string" name="PRECFOCK"></i>
   <i type="logical" name="LSYMGRAD"> F  </i>
   <i type="logical" name="LHFONE"> F  </i>
   <i type="logical" name="LRHFCALC"> F  </i>
   <i type="logical" name="LTHOMAS"> F  </i>
   <i type="logical" name="LMODELHF"> F  </i>
   <i name="ENCUT4O">     -1.00000000</i>
   <i type="int" name="EXXOEP">     0</i>
   <i type="int" name="FOURORBIT">     0</i>
   <i name="AEXX">      0.00000000</i>
   <i name="HFALPHA">      0.00000000</i>
   <i name="MCALPHA">      0.00000000</i>
   <i name="ALDAX">      1.00000000</i>
   <i name="AGGAX">      1.00000000</i>
   <i name="ALDAC">      1.00000000</i>
   <i name="AGGAC">      1.00000000</i>
   <i type="int" name="NKREDX">     1</i>
   <i type="int" name="NKREDY">     1</i>
   <i type="int" name="NKREDZ">     1</i>
   <i type="logical" name="SHIFTRED"> F  </i>
   <i type="logical" name="ODDONLY"> F  </i>
   <i type="logical" name="EVENONLY"> F  </i>
   <i type="int" name="LMAXFOCK">     0</i>
   <i type="int" name="NMAXFOCKAE">     0</i>
   <i type="logical" name="LFOCKAEDFT"> F  </i>
   <i name="HFSCREEN">      0.00000000</i>
   <i name="HFSCREENC">      0.00000000</i>
   <i type="int" name="NBANDSGWLOW">     0</i>
  </separator>
  <separator name="vdW DFT" >
   <i type="logical" name="LUSE_VDW"> F  </i>
   <i name="Zab_VDW">     -0.84910000</i>
   <i name="PARAM1">      0.12340000</i>
   <i name="PARAM2">      1.00000000</i>
   <i name="PARAM3">      0.00000000</i>
  </separator>
  <separator name="model GW" >
   <i type="int" name="MODEL_GW">     0</i>
   <i name="MODEL_EPS0">     23.15528112</i>
   <i name="MODEL_ALPHA">      1.00000000</i>
  </separator>
  <separator name="linear response parameters" >
   <i type="logical" name="LEPSILON"> F  </i>
   <i type="logical" name="LRPA"> F  </i>
   <i type="logical" name="LNABLA"> F  </i>
   <i type="logical" name="LVEL"> F  </i>
   <i type="int" name="KINTER">     0</i>
   <i name="CSHIFT">      0.10000000</i>
   <i name="OMEGAMAX">     -1.00000000</i>
   <i name="DEG_THRESHOLD">      0.00200000</i>
   <i name="RTIME">     -0.10000000</i>
   <i name="WPLASMAI">      0.00000000</i>
   <v name="DFIELD">      0.00000000      0.00000000      0.00000000</v>
   <v name="WPLASMA">      0.00000000      0.00000000      0.00000000      0.00000000      0.00000000      0.00000000      0.00000000      0.00000000      0.00000000</v>
  </separator>
  <separator name="orbital magnetization" >
   <i type="logical" name="NUCIND"> F  </i>
   <v name="MAGPOS">      0.00000000      0.00000000      0.00000000</v>
   <i type="logical" name="LNICSALL"> T  </i>
   <i type="logical" name="ORBITALMAG"> F  </i>
   <i type="logical" name="LMAGBLOCH"> F  </i>
   <i type="logical" name="LCHIMAG"> F  </i>
   <i type="logical" name="LGAUGE"> T  </i>
   <i type="int" name="MAGATOM">     0</i>
   <v name="MAGDIPOL">      0.00000000      0.00000000      0.00000000</v>
   <v name="AVECCONST">      0.00000000      0.00000000      0.00000000</v>
  </separator>
  <separator name="response functions" >
   <i type="logical" name="LADDER"> F  </i>
   <i type="logical" name="LRPAFORCE"> F  </i>
   <i type="logical" name="LFXC"> F  </i>
   <i type="logical" name="LHARTREE"> T  </i>
   <i type="int" name="IBSE">     0</i>
   <v type="int" name="KPOINT">    -1     0     0     0</v>
   <i type="logical" name="LTCTE"> F  </i>
   <i type="logical" name="LTETE"> F  </i>
   <i type="logical" name="LTRIPLET"> F  </i>
   <i type="logical" name="LFXCEPS"> F  </i>
   <i type="logical" name="LFXHEG"> F  </i>
   <i type="int" name="NATURALO">     2</i>
   <i type="logical" name="L2ORDER"> F  </i>
   <i type="logical" name="LMP2LT"> F  </i>
   <i type="logical" name="LUSEW"> F  </i>
   <i name="ENCUTGW">     -2.00000000</i>
   <i name="ENCUTGWSOFT">     -2.00000000</i>
   <i name="ENCUTLF">     -1.00000000</i>
   <i type="int" name="LMAXMP2">    -1</i>
   <i name="SCISSOR">      0.00000000</i>
   <i type="int" name="NOMEGA">     0</i>
   <i type="int" name="NOMEGAR">     0</i>
   <i type="int" name="NBANDSGW">    -1</i>
   <i type="int" name="NBANDSO">    -1</i>
   <i type="int" name="NBANDSV">    -1</i>
   <i type="int" name="NELM">     1</i>
   <i type="int" name="NELMHF">     1</i>
   <i type="int" name="DIM">     3</i>
   <i type="int" name="ANTIRES">     0</i>
   <i name="OMEGAMAX">    -30.00000000</i>
   <i name="OMEGAMIN">    -30.00000000</i>
   <i name="OMEGATL">   -200.00000000</i>
   <i type="int" name="OMEGAGRID">   140</i>
   <i name="CSHIFT">     -0.10000000</i>
   <i type="logical" name="SELFENERGY"> F  </i>
   <i type="logical" name="LSPECTRAL"> F  </i>
   <i type="logical" name="LSPECTRALGW"> F  </i>
   <i type="logical" name="LSINGLES"> F  </i>
   <i type="logical" name="LFERMIGW"> F  </i>
   <i type="logical" name="ODDONLYGW"> F  </i>
   <i type="logical" name="EVENONLYGW"> F  </i>
   <i type="int" name="NKREDLFX">     1</i>
   <i type="int" name="NKREDLFY">     1</i>
   <i type="int" name="NKREDLFZ">     1</i>
   <i type="int" name="MAXMEM">  2800</i>
   <i type="int" name="TELESCOPE">     0</i>
   <i type="int" name="TAUPAR">     1</i>
   <i type="int" name="OMEGAPAR">    -1</i>
   <i name="LAMBDA">      1.00000000</i>
  </separator>
  <separator name="External order field" >
   <i name="OFIELD_KAPPA">      0.00000000</i>
   <v name="OFIELD_K">      0.00000000      0.00000000      0.00000000</v>
   <i name="OFIELD_Q6_NEAR">      0.00000000</i>
   <i name="OFIELD_Q6_FAR">      0.00000000</i>
   <i name="OFIELD_A">      0.00000000</i>
  </separator>
 </parameters>
 <atominfo>
  <atoms>      16 </atoms>
  <types>       1 </types>
  <array name="atoms" >
   <dimension dim="1">ion</dimension>
   <field type="string">element</field>
   <field type="int">atomtype</field>
   <set>
    <rc><c>Cu</c><c>   1</c></rc>
    <rc><c>Cu</c><c>   1</c></rc>
    <rc><c>Cu</c><c>   1</c></rc>
    <rc><c>Cu</c><c>   1</c></rc>
    <rc><c>Cu</c><c>   1</c></rc>
    <rc><c>Cu</c><c>   1</c></rc>
    <rc><c>Cu</c><c>   1</c></rc>
    <rc><c>Cu</c><c>   1</c></rc>
    <rc><c>Cu</c><c>   1</c></rc>
    <rc><c>Cu</c><c>   1</c></rc>
    <rc><c>Cu</c><c>   1</c></rc>
    <rc><c>Cu</c><c>   1</c></rc>
    <rc><c>Cu</c><c>   1</c></rc>
    <rc><c>Cu</c><c>   1</c></rc>
    <rc><c>Cu</c><c>   1</c></rc>
    <rc><c>Cu</c><c>   1</c></rc>
   </set>
  </array>
  <array name="atomtypes" >
   <dimension dim="1">type</dimension>
   <field type="int">atomspertype</field>
   <field type="string">element</field>
   <field>mass</field>
   <field>valence</field>
   <field type="string">pseudopotential</field>
   <set>
    <rc><c>  16</c><c>Cu</c><c>     63.54600000</c><c>     11.00000000</c><c>  PAW_PBE Cu 22Jun2005                  </c></rc>
   </set>
  </array>
 </atominfo>
 <structure name="initialpos" >
  <crystal>
   <varray name="basis" >
    <v>       5.19996363       0.00000000       0.00000000 </v>
    <v>       2.59998182       4.50330060       0.00000000 </v>
    <v>       0.00000000       0.00000000      26.36862879 </v>
   </varray>
   <i name="volume">    617.47416323 </i>
   <varray name="rec_basis" >
    <v>       0.19230904      -0.11102967       0.00000000 </v>
    <v>       0.00000000       0.22205935       0.00000000 </v>
    <v>       0.00000000       0.00000000       0.03792385 </v>
   </varray>
  </crystal>
  <varray name="positions" >
   <v>       0.00000000       0.00000000       0.37923853 </v>
   <v>       0.50000000       0.00000000       0.37923853 </v>
   <v>       0.00000000       0.50000000       0.37923853 </v>
   <v>       0.50000000       0.50000000       0.37923853 </v>
   <v>       0.16666667       0.16666667       0.45974618 </v>
   <v>       0.66666667       0.16666667       0.45974618 </v>
   <v>       0.16666667       0.66666667       0.45974618 </v>
   <v>       0.66666667       0.66666667       0.45974618 </v>
   <v>       0.83333593       0.33331957       0.53871077 </v>
   <v>       0.33333543       0.33332721       0.53870982 </v>
   <v>       0.83333242       0.83334122       0.53871090 </v>
   <v>       0.33332267       0.83333900       0.53870958 </v>
   <v>       0.99999564       0.00000402       0.61779825 </v>
   <v>       0.50000444       0.00000441       0.61779738 </v>
   <v>       0.99999949       0.50000430       0.61780048 </v>
   <v>       0.50000384       0.49999738       0.61779789 </v>
  </varray>
  <varray name="selective"  type="logical" >
   <v type="logical" >  F  F  F </v>
   <v type="logical" >  F  F  F </v>
   <v type="logical" >  F  F  F </v>
   <v type="logical" >  F  F  F </v>
   <v type="logical" >  F  F  F </v>
   <v type="logical" >  F  F  F </v>
   <v type="logical" >  F  F  F </v>
   <v type="logical" >  F  F  F </v>
   <v type="logical" >  T  T  T </v>
   <v type="logical" >  T  T  T </v>
   <v type="logical" >  T  T  T </v>
   <v type="logical" >  T  T  T </v>
   <v type="logical" >  T  T  T </v>
   <v type="logical" >  T  T  T </v>
   <v type="logical" >  T  T  T </v>
   <v type="logical" >  T  T  T </v>
  </varray>
  <nose>
   <v>      -3.00000000       0.00000000       0.00010000       0.00010000 </v>
  </nose>
 </structure>
 <calculation>
  <scstep>
   <time name="dav">   12.61   21.15</time>
   <time name="total">   12.69   21.38</time>
   <energy>
    <i name="alphaZ">    303.20293321 </i>
    <i name="ewald"> 108504.60098962 </i>
    <i name="hartreedc">-129689.11857034 </i>
    <i name="XCdc">    717.90666472 </i>
    <i name="pawpsdc">  19663.77997115 </i>
    <i name="pawaedc"> -21341.09948072 </i>
    <i name="eentropy">     -0.00545334 </i>
    <i name="bandstr">   1051.08275298 </i>
    <i name="atom">  22238.56510406 </i>
    <i name="e_fr_energy">   1448.91491133 </i>
    <i name="e_wo_entrp">   1448.92036467 </i>
    <i name="e_0_energy">   1448.91672911 </i>
   </energy>
  </scstep>
  <scstep>
   <time name="dav">    2.17    2.17</time>
   <time name="total">    2.17    2.17</time>
   <energy>
    <i name="e_fr_energy">     88.35508511 </i>
    <i name="e_wo_entrp">     88.36163397 </i>
    <i name="e_0_energy">     88.35726806 </i>
   </energy>
  </scstep>
  <scstep>
   <time name="dav">    2.25    2.25</time>
   <time name="total">    2.25    2.25</time>
   <energy>
    <i name="e_fr_energy">    -53.18616737 </i>
    <i name="e_wo_entrp">    -53.14500901 </i>
    <i name="e_0_energy">    -53.17244792 </i>
   </energy>
  </scstep>
  <scstep>
   <time name="dav">    2.24    2.24</time>
   <time name="total">    2.24    2.24</time>
   <energy>
    <i name="e_fr_energy">    -59.70104407 </i>
    <i name="e_wo_entrp">    -59.64998093 </i>
    <i name="e_0_energy">    -59.68402302 </i>
   </energy>
  </scstep>
  <scstep>
   <time name="dav">    2.59    2.59</time>
   <time name="total">    2.74    2.74</time>
   <energy>
    <i name="e_fr_energy">    -59.88088202 </i>
    <i name="e_wo_entrp">    -59.82933983 </i>
    <i name="e_0_energy">    -59.86370129 </i>
   </energy>
  </scstep>
  <scstep>
   <time name="dav">    2.34    2.34</time>
   <time name="total">    2.51    2.51</time>
   <energy>
    <i name="e_fr_energy">    -54.40247642 </i>
    <i name="e_wo_entrp">    -54.38568513 </i>
    <i name="e_0_energy">    -54.39687932 </i>
   </energy>
  </scstep>
  <scstep>
   <time name="dav">    2.46    2.47</time>
   <time name="total">    2.65    2.65</time>
   <energy>
    <i name="e_fr_energy">    -48.88349448 </i>
    <i name="e_wo_entrp">    -48.89188191 </i>
    <i name="e_0_energy">    -48.88629029 </i>
   </energy>
  </scstep>
  <scstep>
   <time name="dav">    2.62    2.62</time>
   <time name="total">    2.80    2.80</time>
   <energy>
    <i name="e_fr_energy">    -48.95810509 </i>
    <i name="e_wo_entrp">    -48.95948648 </i>
    <i name="e_0_energy">    -48.95856555 </i>
   </energy>
  </scstep>
  <scstep>
   <time name="dav">    3.77    4.17</time>
   <time name="total">    4.11    4.71</time>
   <energy>
    <i name="e_fr_energy">    -48.89485060 </i>
    <i name="e_wo_entrp">    -48.89814408 </i>
    <i name="e_0_energy">    -48.89594842 </i>
   </energy>
  </scstep>
  <scstep>
   <time name="dav">   20.47   34.40</time>
   <time name="total">   20.87   35.09</time>
   <energy>
    <i name="e_fr_energy">    -48.84627196 </i>
    <i name="e_wo_entrp">    -48.85005370 </i>
    <i name="e_0_energy">    -48.84753254 </i>
   </energy>
  </scstep>
  <scstep>
   <time name="dav">   14.82   25.07</time>
   <time name="total">   15.20   25.87</time>
   <energy>
    <i name="e_fr_energy">    -48.81731571 </i>
    <i name="e_wo_entrp">    -48.82070134 </i>
    <i name="e_0_energy">    -48.81844426 </i>
   </energy>
  </scstep>
  <scstep>
   <time name="dav">   10.22   17.87</time>
   <time name="total">   10.60   18.72</time>
   <energy>
    <i name="e_fr_energy">    -48.81756800 </i>
    <i name="e_wo_entrp">    -48.82156640 </i>
    <i name="e_0_energy">    -48.81890080 </i>
   </energy>
  </scstep>
  <scstep>
   <time name="dav">   14.03   24.21</time>
   <time name="total">   14.53   25.00</time>
   <energy>
    <i name="e_fr_energy">    -48.81625232 </i>
    <i name="e_wo_entrp">    -48.82113170 </i>
    <i name="e_0_energy">    -48.81787878 </i>
   </energy>
  </scstep>
  <scstep>
   <time name="dav">   17.20   25.91</time>
   <time name="total">   17.65   26.60</time>
   <energy>
    <i name="e_fr_energy">    -48.81561169 </i>
    <i name="e_wo_entrp">    -48.82028539 </i>
    <i name="e_0_energy">    -48.81716959 </i>
   </energy>
  </scstep>
  <scstep>
   <time name="dav">   15.09   22.50</time>
   <time name="total">   15.59   23.54</time>
   <energy>
    <i name="e_fr_energy">    -48.81515337 </i>
    <i name="e_wo_entrp">    -48.81941110 </i>
    <i name="e_0_energy">    -48.81657261 </i>
   </energy>
  </scstep>
  <scstep>
   <time name="dav">   11.79   19.94</time>
   <time name="total">   11.86   20.09</time>
   <energy>
    <i name="alphaZ">    303.20293321 </i>
    <i name="ewald"> 108504.60098962 </i>
    <i name="hartreedc">-129475.55036463 </i>
    <i name="XCdc">    703.11951388 </i>
    <i name="pawpsdc">  20636.17824361 </i>
    <i name="pawaedc"> -22344.11568234 </i>
    <i name="eentropy">      0.00438457 </i>
    <i name="bandstr">   -614.82018142 </i>
    <i name="atom">  22238.56510406 </i>
    <i name="e_fr_energy">    -48.81505943 </i>
    <i name="e_wo_entrp">    -48.81944401 </i>
    <i name="e_0_energy">    -48.81652096 </i>
   </energy>
  </scstep>
  <structure>
   <crystal>
    <varray name="basis" >
     <v>       5.19996363       0.00000000       0.00000000 </v>
     <v>       2.59998182       4.50330060       0.00000000 </v>
     <v>       0.00000000       0.00000000      26.36862879 </v>
    </varray>
    <i name="volume">    617.47416323 </i>
    <varray name="rec_basis" >
     <v>       0.19230904      -0.11102967       0.00000000 </v>
     <v>       0.00000000       0.22205935       0.00000000 </v>
     <v>       0.00000000       0.00000000       0.03792385 </v>
    </varray>
   </crystal>
   <varray name="positions" >
    <v>       0.00000000       0.00000000       0.37923853 </v>
    <v>       0.50000000       0.00000000       0.37923853 </v>
    <v>       0.00000000       0.50000000       0.37923853 </v>
    <v>       0.50000000       0.50000000       0.37923853 </v>
    <v>       0.16666667       0.16666667       0.45974618 </v>
    <v>       0.66666667       0.16666667       0.45974618 </v>
    <v>       0.16666667       0.66666667       0.45974618 </v>
    <v>       0.66666667       0.66666667       0.45974618 </v>
    <v>       0.83333593       0.33331957       0.53871077 </v>
    <v>       0.33333543       0.33332721       0.53870982 </v>
    <v>       0.83333242       0.83334122       0.53871090 </v>
    <v>       0.33332267       0.83333900       0.53870958 </v>
    <v>       0.99999564       0.00000402       0.61779825 </v>
    <v>       0.50000444       0.00000441       0.61779738 </v>
    <v>       0.99999949       0.50000430       0.61780048 </v>
    <v>       0.50000384       0.49999738       0.61779789 </v>
   </varray>
  </structure>
  <varray name="forces" >
   <v>       0.00010477       0.00007083       0.12387716 </v>
   <v>      -0.00010322       0.00015994       0.12353608 </v>
   <v>       0.00006222      -0.00019694       0.12325720 </v>
   <v>      -0.00007847      -0.00009142       0.12338123 </v>
   <v>      -0.00004113       0.00000341      -0.11464601 </v>
   <v>      -0.00001247      -0.00000590      -0.11455973 </v>
   <v>      -0.00005164       0.00000577      -0.11446171 </v>
   <v>      -0.00000246      -0.00002567      -0.11428031 </v>
   <v>       0.00027244       0.00049639      -0.00195236 </v>
   <v>      -0.00017101       0.00024346      -0.00193815 </v>
   <v>      -0.00020804      -0.00042903      -0.00172688 </v>
   <v>       0.00026262      -0.00018505      -0.00166693 </v>
   <v>       0.00017406      -0.00017101      -0.00724612 </v>
   <v>      -0.00018511      -0.00018869      -0.00727158 </v>
   <v>       0.00000798       0.00003698      -0.00739944 </v>
   <v>      -0.00003056       0.00027694      -0.00690244 </v>
  </varray>
  <energy>
   <i name="e_fr_energy">    -48.81505943 </i>
   <i name="e_wo_entrp">    -48.81652096 </i>
   <i name="e_0_energy">      0.00438457 </i>
  </energy>
  <time name="totalsc">  142.19  221.10</time>
  <eigenvalues>
   <array>
    <dimension dim="1">band</dimension>
    <dimension dim="2">kpoint</dimension>
    <dimension dim="3">spin</dimension>
    <field>eigene</field>
    <field>occ</field>
    <set>
     <set comment="spin 1">
      <set comment="kpoint 1">
       <r>   -9.3230    1.0000 </r>
       <r>   -8.0871    1.0000 </r>
       <r>   -6.4733    1.0000 </r>
       <r>   -5.6084    1.0000 </r>
       <r>   -5.3356    1.0000 </r>
       <r>   -5.3355    1.0000 </r>
       <r>   -5.3354    1.0000 </r>
       <r>   -5.1992    1.0000 </r>
       <r>   -5.1991    1.0000 </r>
       <r>   -5.1988    1.0000 </r>
       <r>   -4.8294    1.0000 </r>
       <r>   -4.8294    1.0000 </r>
       <r>   -4.8291    1.0000 </r>
       <r>   -4.7947    1.0000 </r>
       <r>   -4.7947    1.0000 </r>
       <r>   -4.7945    1.0000 </r>
       <r>   -4.7574    1.0000 </r>
       <r>   -4.7573    1.0000 </r>
       <r>   -4.7572    1.0000 </r>
       <r>   -4.3890    1.0000 </r>
       <r>   -4.3889    1.0000 </r>
       <r>   -4.3888    1.0000 </r>
       <r>   -3.8517    1.0000 </r>
       <r>   -3.8516    1.0000 </r>
       <r>   -3.8514    1.0000 </r>
       <r>   -3.6511    1.0000 </r>
       <r>   -3.6414    1.0000 </r>
       <r>   -3.6413    1.0000 </r>
       <r>   -3.6412    1.0000 </r>
       <r>   -3.6309    1.0000 </r>
       <r>   -3.5559    1.0000 </r>
       <r>   -3.5557    1.0000 </r>
       <r>   -3.5191    1.0000 </r>
       <r>   -3.5190    1.0000 </r>
       <r>   -3.5129    1.0000 </r>
       <r>   -3.5128    1.0000 </r>
       <r>   -3.5124    1.0000 </r>
       <r>   -3.3883    1.0000 </r>
       <r>   -3.3882    1.0000 </r>
       <r>   -3.3806    1.0000 </r>
       <r>   -3.3498    1.0000 </r>
       <r>   -3.3494    1.0000 </r>
       <r>   -3.3492    1.0000 </r>
       <r>   -3.3423    1.0000 </r>
       <r>   -3.3421    1.0000 </r>
       <r>   -3.0777    1.0000 </r>
       <r>   -3.0776    1.0000 </r>
       <r>   -3.0773    1.0000 </r>
       <r>   -3.0556    1.0000 </r>
       <r>   -3.0553    1.0000 </r>
       <r>   -3.0552    1.0000 </r>
       <r>   -2.8189    1.0000 </r>
       <r>   -2.8188    1.0000 </r>
       <r>   -2.7221    1.0000 </r>
       <r>   -2.7220    1.0000 </r>
       <r>   -2.6254    1.0000 </r>
       <r>   -2.6252    1.0000 </r>
       <r>   -2.6250    1.0000 </r>
       <r>   -2.5445    1.0000 </r>
       <r>   -2.5444    1.0000 </r>
       <r>   -2.5442    1.0000 </r>
       <r>   -2.4825    1.0000 </r>
       <r>   -2.4825    1.0000 </r>
       <r>   -2.3504    1.0000 </r>
       <r>   -2.3502    1.0000 </r>
       <r>   -2.3501    1.0000 </r>
       <r>   -2.3500    1.0000 </r>
       <r>   -2.3499    1.0000 </r>
       <r>   -2.3497    1.0000 </r>
       <r>   -2.3161    1.0000 </r>
       <r>   -2.3161    1.0000 </r>
       <r>   -2.2724    1.0000 </r>
       <r>   -2.2722    1.0000 </r>
       <r>   -2.2717    1.0000 </r>
       <r>   -2.2171    1.0000 </r>
       <r>   -2.2169    1.0000 </r>
       <r>   -2.2165    1.0000 </r>
       <r>   -2.1545    1.0000 </r>
       <r>   -2.1542    1.0000 </r>
       <r>   -2.1541    1.0000 </r>
       <r>   -2.1380    1.0000 </r>
       <r>   -2.1377    1.0000 </r>
       <r>   -2.1376    1.0000 </r>
       <r>   -1.8884    1.0000 </r>
       <r>   -0.9189    1.0272 </r>
       <r>   -0.9189    1.0272 </r>
       <r>   -0.9189    1.0272 </r>
       <r>   -0.8428    0.9376 </r>
       <r>    0.0010   -0.0000 </r>
       <r>    0.0011   -0.0000 </r>
       <r>    0.0011   -0.0000 </r>
       <r>    0.5358   -0.0000 </r>
       <r>    0.5359   -0.0000 </r>
       <r>    0.5359   -0.0000 </r>
       <r>    0.8051   -0.0000 </r>
       <r>    0.8051   -0.0000 </r>
       <r>    0.8052   -0.0000 </r>
       <r>    3.0446   -0.0000 </r>
       <r>    3.2062   -0.0000 </r>
       <r>    3.3401   -0.0000 </r>
       <r>    3.3402   -0.0000 </r>
       <r>    3.3402   -0.0000 </r>
       <r>    4.1340   -0.0000 </r>
       <r>    4.1341   -0.0000 </r>
       <r>    4.1341   -0.0000 </r>
       <r>    4.1415   -0.0000 </r>
       <r>    4.3814   -0.0000 </r>
       <r>    5.1537    0.0000 </r>
      </set>
      <set comment="kpoint 2">
       <r>   -9.0159    1.0000 </r>
       <r>   -7.7926    1.0000 </r>
       <r>   -6.2042    1.0000 </r>
       <r>   -5.6705    1.0000 </r>
       <r>   -5.4023    1.0000 </r>
       <r>   -5.3078    1.0000 </r>
       <r>   -5.2687    1.0000 </r>
       <r>   -5.2686    1.0000 </r>
       <r>   -5.1121    1.0000 </r>
       <r>   -5.1120    1.0000 </r>
       <r>   -4.9371    1.0000 </r>
       <r>   -4.7797    1.0000 </r>
       <r>   -4.7796    1.0000 </r>
       <r>   -4.7228    1.0000 </r>
       <r>   -4.7051    1.0000 </r>
       <r>   -4.7050    1.0000 </r>
       <r>   -4.5919    1.0000 </r>
       <r>   -4.5833    1.0000 </r>
       <r>   -4.5832    1.0000 </r>
       <r>   -4.3236    1.0000 </r>
       <r>   -4.3235    1.0000 </r>
       <r>   -4.3155    1.0000 </r>
       <r>   -3.9077    1.0000 </r>
       <r>   -3.9076    1.0000 </r>
       <r>   -3.8381    1.0000 </r>
       <r>   -3.7885    1.0000 </r>
       <r>   -3.7393    1.0000 </r>
       <r>   -3.6479    1.0000 </r>
       <r>   -3.6017    1.0000 </r>
       <r>   -3.6015    1.0000 </r>
       <r>   -3.5955    1.0000 </r>
       <r>   -3.5658    1.0000 </r>
       <r>   -3.5657    1.0000 </r>
       <r>   -3.4948    1.0000 </r>
       <r>   -3.4930    1.0000 </r>
       <r>   -3.4788    1.0000 </r>
       <r>   -3.4651    1.0000 </r>
       <r>   -3.4587    1.0000 </r>
       <r>   -3.4504    1.0000 </r>
       <r>   -3.4438    1.0000 </r>
       <r>   -3.4378    1.0000 </r>
       <r>   -3.4376    1.0000 </r>
       <r>   -3.3326    1.0000 </r>
       <r>   -3.2951    1.0000 </r>
       <r>   -3.2949    1.0000 </r>
       <r>   -3.2941    1.0000 </r>
       <r>   -3.2479    1.0000 </r>
       <r>   -3.1755    1.0000 </r>
       <r>   -3.0620    1.0000 </r>
       <r>   -3.0054    1.0000 </r>
       <r>   -3.0052    1.0000 </r>
       <r>   -2.8897    1.0000 </r>
       <r>   -2.8735    1.0000 </r>
       <r>   -2.8030    1.0000 </r>
       <r>   -2.7776    1.0000 </r>
       <r>   -2.7775    1.0000 </r>
       <r>   -2.7184    1.0000 </r>
       <r>   -2.7067    1.0000 </r>
       <r>   -2.6960    1.0000 </r>
       <r>   -2.6912    1.0000 </r>
       <r>   -2.6911    1.0000 </r>
       <r>   -2.6414    1.0000 </r>
       <r>   -2.6230    1.0000 </r>
       <r>   -2.6228    1.0000 </r>
       <r>   -2.4832    1.0000 </r>
       <r>   -2.4541    1.0000 </r>
       <r>   -2.4442    1.0000 </r>
       <r>   -2.4440    1.0000 </r>
       <r>   -2.4208    1.0000 </r>
       <r>   -2.4046    1.0000 </r>
       <r>   -2.3868    1.0000 </r>
       <r>   -2.3866    1.0000 </r>
       <r>   -2.3787    1.0000 </r>
       <r>   -2.3617    1.0000 </r>
       <r>   -2.3616    1.0000 </r>
       <r>   -2.3101    1.0000 </r>
       <r>   -2.2955    1.0000 </r>
       <r>   -2.2809    1.0000 </r>
       <r>   -2.2807    1.0000 </r>
       <r>   -2.2733    1.0000 </r>
       <r>   -2.2248    1.0000 </r>
       <r>   -2.2051    1.0000 </r>
       <r>   -2.2048    1.0000 </r>
       <r>   -2.1773    1.0000 </r>
       <r>   -1.6467    1.0000 </r>
       <r>   -1.3745    1.0000 </r>
       <r>   -0.9116    1.0235 </r>
       <r>   -0.9114    1.0234 </r>
       <r>   -0.2921   -0.0055 </r>
       <r>   -0.2920   -0.0055 </r>
       <r>   -0.2154   -0.0012 </r>
       <r>   -0.1612   -0.0003 </r>
       <r>    0.8599   -0.0000 </r>
       <r>    0.8600   -0.0000 </r>
       <r>    1.8988   -0.0000 </r>
       <r>    1.8988   -0.0000 </r>
       <r>    2.0115   -0.0000 </r>
       <r>    3.3127   -0.0000 </r>
       <r>    3.5062   -0.0000 </r>
       <r>    3.6375   -0.0000 </r>
       <r>    3.6375   -0.0000 </r>
       <r>    4.0561   -0.0000 </r>
       <r>    4.4384   -0.0000 </r>
       <r>    4.5128   -0.0000 </r>
       <r>    4.5129   -0.0000 </r>
       <r>    4.6371   -0.0000 </r>
       <r>    4.7883    0.0000 </r>
       <r>    5.3292    0.0000 </r>
      </set>
      <set comment="kpoint 3">
       <r>   -8.1307    1.0000 </r>
       <r>   -6.9679    1.0000 </r>
       <r>   -6.8313    1.0000 </r>
       <r>   -5.9118    1.0000 </r>
       <r>   -5.5154    1.0000 </r>
       <r>   -5.1324    1.0000 </r>
       <r>   -5.1323    1.0000 </r>
       <r>   -4.9910    1.0000 </r>
       <r>   -4.9082    1.0000 </r>
       <r>   -4.8997    1.0000 </r>
       <r>   -4.8995    1.0000 </r>
       <r>   -4.6624    1.0000 </r>
       <r>   -4.6621    1.0000 </r>
       <r>   -4.6061    1.0000 </r>
       <r>   -4.4738    1.0000 </r>
       <r>   -4.4737    1.0000 </r>
       <r>   -4.3895    1.0000 </r>
       <r>   -4.2869    1.0000 </r>
       <r>   -4.2866    1.0000 </r>
       <r>   -4.1430    1.0000 </r>
       <r>   -4.1429    1.0000 </r>
       <r>   -4.1181    1.0000 </r>
       <r>   -4.1066    1.0000 </r>
       <r>   -4.0458    1.0000 </r>
       <r>   -4.0458    1.0000 </r>
       <r>   -3.9163    1.0000 </r>
       <r>   -3.8975    1.0000 </r>
       <r>   -3.8657    1.0000 </r>
       <r>   -3.8090    1.0000 </r>
       <r>   -3.8088    1.0000 </r>
       <r>   -3.7282    1.0000 </r>
       <r>   -3.7279    1.0000 </r>
       <r>   -3.7164    1.0000 </r>
       <r>   -3.5917    1.0000 </r>
       <r>   -3.5653    1.0000 </r>
       <r>   -3.5182    1.0000 </r>
       <r>   -3.4729    1.0000 </r>
       <r>   -3.4338    1.0000 </r>
       <r>   -3.4338    1.0000 </r>
       <r>   -3.3977    1.0000 </r>
       <r>   -3.3683    1.0000 </r>
       <r>   -3.3683    1.0000 </r>
       <r>   -3.3581    1.0000 </r>
       <r>   -3.3246    1.0000 </r>
       <r>   -3.3186    1.0000 </r>
       <r>   -3.3185    1.0000 </r>
       <r>   -3.3094    1.0000 </r>
       <r>   -3.2618    1.0000 </r>
       <r>   -3.2617    1.0000 </r>
       <r>   -3.2594    1.0000 </r>
       <r>   -3.1928    1.0000 </r>
       <r>   -3.1627    1.0000 </r>
       <r>   -3.1526    1.0000 </r>
       <r>   -3.0751    1.0000 </r>
       <r>   -3.0444    1.0000 </r>
       <r>   -3.0032    1.0000 </r>
       <r>   -3.0031    1.0000 </r>
       <r>   -2.9974    1.0000 </r>
       <r>   -2.9855    1.0000 </r>
       <r>   -2.8590    1.0000 </r>
       <r>   -2.8130    1.0000 </r>
       <r>   -2.7665    1.0000 </r>
       <r>   -2.7663    1.0000 </r>
       <r>   -2.7512    1.0000 </r>
       <r>   -2.7370    1.0000 </r>
       <r>   -2.7053    1.0000 </r>
       <r>   -2.7049    1.0000 </r>
       <r>   -2.6845    1.0000 </r>
       <r>   -2.6577    1.0000 </r>
       <r>   -2.6439    1.0000 </r>
       <r>   -2.6437    1.0000 </r>
       <r>   -2.5770    1.0000 </r>
       <r>   -2.5705    1.0000 </r>
       <r>   -2.5513    1.0000 </r>
       <r>   -2.4857    1.0000 </r>
       <r>   -2.4618    1.0000 </r>
       <r>   -2.3999    1.0000 </r>
       <r>   -2.3998    1.0000 </r>
       <r>   -2.2967    1.0000 </r>
       <r>   -2.2899    1.0000 </r>
       <r>   -2.2897    1.0000 </r>
       <r>   -2.2800    1.0000 </r>
       <r>   -2.2071    1.0000 </r>
       <r>   -2.2066    1.0000 </r>
       <r>   -2.0616    1.0000 </r>
       <r>   -1.4383    1.0000 </r>
       <r>   -0.9068    1.0206 </r>
       <r>   -0.9065    1.0204 </r>
       <r>   -0.4627   -0.0353 </r>
       <r>   -0.3209   -0.0088 </r>
       <r>   -0.3208   -0.0088 </r>
       <r>    0.7411   -0.0000 </r>
       <r>    1.0861   -0.0000 </r>
       <r>    1.0862   -0.0000 </r>
       <r>    1.2351   -0.0000 </r>
       <r>    3.0089   -0.0000 </r>
       <r>    3.2147   -0.0000 </r>
       <r>    3.2148   -0.0000 </r>
       <r>    4.1136   -0.0000 </r>
       <r>    4.4051   -0.0000 </r>
       <r>    4.6637   -0.0000 </r>
       <r>    4.6638   -0.0000 </r>
       <r>    5.3286    0.0000 </r>
       <r>    5.4182    0.0000 </r>
       <r>    5.4184    0.0000 </r>
       <r>    5.5733    0.0000 </r>
       <r>    5.5733    0.0000 </r>
       <r>    5.9091    0.0000 </r>
      </set>
      <set comment="kpoint 4">
       <r>   -9.0159    1.0000 </r>
       <r>   -7.7926    1.0000 </r>
       <r>   -6.2042    1.0000 </r>
       <r>   -5.6705    1.0000 </r>
       <r>   -5.4023    1.0000 </r>
       <r>   -5.3078    1.0000 </r>
       <r>   -5.2687    1.0000 </r>
       <r>   -5.2686    1.0000 </r>
       <r>   -5.1122    1.0000 </r>
       <r>   -5.1119    1.0000 </r>
       <r>   -4.9371    1.0000 </r>
       <r>   -4.7798    1.0000 </r>
       <r>   -4.7795    1.0000 </r>
       <r>   -4.7228    1.0000 </r>
       <r>   -4.7051    1.0000 </r>
       <r>   -4.7050    1.0000 </r>
       <r>   -4.5919    1.0000 </r>
       <r>   -4.5834    1.0000 </r>
       <r>   -4.5831    1.0000 </r>
       <r>   -4.3236    1.0000 </r>
       <r>   -4.3234    1.0000 </r>
       <r>   -4.3155    1.0000 </r>
       <r>   -3.9078    1.0000 </r>
       <r>   -3.9076    1.0000 </r>
       <r>   -3.8381    1.0000 </r>
       <r>   -3.7885    1.0000 </r>
       <r>   -3.7393    1.0000 </r>
       <r>   -3.6479    1.0000 </r>
       <r>   -3.6017    1.0000 </r>
       <r>   -3.6014    1.0000 </r>
       <r>   -3.5956    1.0000 </r>
       <r>   -3.5658    1.0000 </r>
       <r>   -3.5656    1.0000 </r>
       <r>   -3.4948    1.0000 </r>
       <r>   -3.4930    1.0000 </r>
       <r>   -3.4788    1.0000 </r>
       <r>   -3.4651    1.0000 </r>
       <r>   -3.4587    1.0000 </r>
       <r>   -3.4504    1.0000 </r>
       <r>   -3.4438    1.0000 </r>
       <r>   -3.4379    1.0000 </r>
       <r>   -3.4375    1.0000 </r>
       <r>   -3.3326    1.0000 </r>
       <r>   -3.2952    1.0000 </r>
       <r>   -3.2948    1.0000 </r>
       <r>   -3.2941    1.0000 </r>
       <r>   -3.2479    1.0000 </r>
       <r>   -3.1755    1.0000 </r>
       <r>   -3.0620    1.0000 </r>
       <r>   -3.0055    1.0000 </r>
       <r>   -3.0051    1.0000 </r>
       <r>   -2.8897    1.0000 </r>
       <r>   -2.8735    1.0000 </r>
       <r>   -2.8030    1.0000 </r>
       <r>   -2.7777    1.0000 </r>
       <r>   -2.7774    1.0000 </r>
       <r>   -2.7184    1.0000 </r>
       <r>   -2.7067    1.0000 </r>
       <r>   -2.6960    1.0000 </r>
       <r>   -2.6913    1.0000 </r>
       <r>   -2.6910    1.0000 </r>
       <r>   -2.6414    1.0000 </r>
       <r>   -2.6231    1.0000 </r>
       <r>   -2.6227    1.0000 </r>
       <r>   -2.4832    1.0000 </r>
       <r>   -2.4541    1.0000 </r>
       <r>   -2.4444    1.0000 </r>
       <r>   -2.4439    1.0000 </r>
       <r>   -2.4208    1.0000 </r>
       <r>   -2.4046    1.0000 </r>
       <r>   -2.3869    1.0000 </r>
       <r>   -2.3866    1.0000 </r>
       <r>   -2.3787    1.0000 </r>
       <r>   -2.3617    1.0000 </r>
       <r>   -2.3615    1.0000 </r>
       <r>   -2.3101    1.0000 </r>
       <r>   -2.2955    1.0000 </r>
       <r>   -2.2811    1.0000 </r>
       <r>   -2.2806    1.0000 </r>
       <r>   -2.2733    1.0000 </r>
       <r>   -2.2248    1.0000 </r>
       <r>   -2.2053    1.0000 </r>
       <r>   -2.2045    1.0000 </r>
       <r>   -2.1773    1.0000 </r>
       <r>   -1.6467    1.0000 </r>
       <r>   -1.3745    1.0000 </r>
       <r>   -0.9117    1.0236 </r>
       <r>   -0.9113    1.0234 </r>
       <r>   -0.2921   -0.0055 </r>
       <r>   -0.2920   -0.0055 </r>
       <r>   -0.2154   -0.0012 </r>
       <r>   -0.1612   -0.0003 </r>
       <r>    0.8599   -0.0000 </r>
       <r>    0.8600   -0.0000 </r>
       <r>    1.8988   -0.0000 </r>
       <r>    1.8988   -0.0000 </r>
       <r>    2.0115   -0.0000 </r>
       <r>    3.3127   -0.0000 </r>
       <r>    3.5062   -0.0000 </r>
       <r>    3.6375   -0.0000 </r>
       <r>    3.6375   -0.0000 </r>
       <r>    4.0561   -0.0000 </r>
       <r>    4.4384   -0.0000 </r>
       <r>    4.5128   -0.0000 </r>
       <r>    4.5129   -0.0000 </r>
       <r>    4.6371   -0.0000 </r>
       <r>    4.7883    0.0000 </r>
       <r>    5.3297    0.0000 </r>
      </set>
      <set comment="kpoint 5">
       <r>   -9.0159    1.0000 </r>
       <r>   -7.7926    1.0000 </r>
       <r>   -6.2042    1.0000 </r>
       <r>   -5.6706    1.0000 </r>
       <r>   -5.4023    1.0000 </r>
       <r>   -5.3078    1.0000 </r>
       <r>   -5.2686    1.0000 </r>
       <r>   -5.2686    1.0000 </r>
       <r>   -5.1121    1.0000 </r>
       <r>   -5.1120    1.0000 </r>
       <r>   -4.9371    1.0000 </r>
       <r>   -4.7797    1.0000 </r>
       <r>   -4.7796    1.0000 </r>
       <r>   -4.7227    1.0000 </r>
       <r>   -4.7051    1.0000 </r>
       <r>   -4.7050    1.0000 </r>
       <r>   -4.5918    1.0000 </r>
       <r>   -4.5833    1.0000 </r>
       <r>   -4.5833    1.0000 </r>
       <r>   -4.3236    1.0000 </r>
       <r>   -4.3236    1.0000 </r>
       <r>   -4.3154    1.0000 </r>
       <r>   -3.9077    1.0000 </r>
       <r>   -3.9076    1.0000 </r>
       <r>   -3.8381    1.0000 </r>
       <r>   -3.7884    1.0000 </r>
       <r>   -3.7393    1.0000 </r>
       <r>   -3.6478    1.0000 </r>
       <r>   -3.6017    1.0000 </r>
       <r>   -3.6015    1.0000 </r>
       <r>   -3.5955    1.0000 </r>
       <r>   -3.5658    1.0000 </r>
       <r>   -3.5656    1.0000 </r>
       <r>   -3.4947    1.0000 </r>
       <r>   -3.4929    1.0000 </r>
       <r>   -3.4789    1.0000 </r>
       <r>   -3.4651    1.0000 </r>
       <r>   -3.4588    1.0000 </r>
       <r>   -3.4505    1.0000 </r>
       <r>   -3.4436    1.0000 </r>
       <r>   -3.4378    1.0000 </r>
       <r>   -3.4377    1.0000 </r>
       <r>   -3.3325    1.0000 </r>
       <r>   -3.2950    1.0000 </r>
       <r>   -3.2949    1.0000 </r>
       <r>   -3.2943    1.0000 </r>
       <r>   -3.2480    1.0000 </r>
       <r>   -3.1755    1.0000 </r>
       <r>   -3.0620    1.0000 </r>
       <r>   -3.0053    1.0000 </r>
       <r>   -3.0052    1.0000 </r>
       <r>   -2.8896    1.0000 </r>
       <r>   -2.8736    1.0000 </r>
       <r>   -2.8030    1.0000 </r>
       <r>   -2.7776    1.0000 </r>
       <r>   -2.7776    1.0000 </r>
       <r>   -2.7184    1.0000 </r>
       <r>   -2.7068    1.0000 </r>
       <r>   -2.6960    1.0000 </r>
       <r>   -2.6912    1.0000 </r>
       <r>   -2.6910    1.0000 </r>
       <r>   -2.6414    1.0000 </r>
       <r>   -2.6229    1.0000 </r>
       <r>   -2.6228    1.0000 </r>
       <r>   -2.4832    1.0000 </r>
       <r>   -2.4542    1.0000 </r>
       <r>   -2.4442    1.0000 </r>
       <r>   -2.4440    1.0000 </r>
       <r>   -2.4208    1.0000 </r>
       <r>   -2.4046    1.0000 </r>
       <r>   -2.3868    1.0000 </r>
       <r>   -2.3867    1.0000 </r>
       <r>   -2.3788    1.0000 </r>
       <r>   -2.3617    1.0000 </r>
       <r>   -2.3616    1.0000 </r>
       <r>   -2.3102    1.0000 </r>
       <r>   -2.2957    1.0000 </r>
       <r>   -2.2807    1.0000 </r>
       <r>   -2.2807    1.0000 </r>
       <r>   -2.2735    1.0000 </r>
       <r>   -2.2249    1.0000 </r>
       <r>   -2.2050    1.0000 </r>
       <r>   -2.2046    1.0000 </r>
       <r>   -2.1773    1.0000 </r>
       <r>   -1.6466    1.0000 </r>
       <r>   -1.3745    1.0000 </r>
       <r>   -0.9116    1.0235 </r>
       <r>   -0.9114    1.0234 </r>
       <r>   -0.2921   -0.0055 </r>
       <r>   -0.2920   -0.0055 </r>
       <r>   -0.2154   -0.0012 </r>
       <r>   -0.1612   -0.0003 </r>
       <r>    0.8599   -0.0000 </r>
       <r>    0.8599   -0.0000 </r>
       <r>    1.8988   -0.0000 </r>
       <r>    1.8988   -0.0000 </r>
       <r>    2.0115   -0.0000 </r>
       <r>    3.3127   -0.0000 </r>
       <r>    3.5062   -0.0000 </r>
       <r>    3.6375   -0.0000 </r>
       <r>    3.6375   -0.0000 </r>
       <r>    4.0562   -0.0000 </r>
       <r>    4.4384   -0.0000 </r>
       <r>    4.5128   -0.0000 </r>
       <r>    4.5128   -0.0000 </r>
       <r>    4.6371   -0.0000 </r>
       <r>    4.7884    0.0000 </r>
       <r>    5.3292    0.0000 </r>
      </set>
      <set comment="kpoint 6">
       <r>   -8.4183    1.0000 </r>
       <r>   -7.2295    1.0000 </r>
       <r>   -6.0007    1.0000 </r>
       <r>   -6.0006    1.0000 </r>
       <r>   -5.7149    1.0000 </r>
       <r>   -5.3818    1.0000 </r>
       <r>   -5.3818    1.0000 </r>
       <r>   -5.0413    1.0000 </r>
       <r>   -4.8761    1.0000 </r>
       <r>   -4.8498    1.0000 </r>
       <r>   -4.8497    1.0000 </r>
       <r>   -4.8447    1.0000 </r>
       <r>   -4.5754    1.0000 </r>
       <r>   -4.5753    1.0000 </r>
       <r>   -4.5486    1.0000 </r>
       <r>   -4.4818    1.0000 </r>
       <r>   -4.3919    1.0000 </r>
       <r>   -4.3817    1.0000 </r>
       <r>   -4.3816    1.0000 </r>
       <r>   -4.2043    1.0000 </r>
       <r>   -4.2042    1.0000 </r>
       <r>   -4.1795    1.0000 </r>
       <r>   -4.0929    1.0000 </r>
       <r>   -3.9656    1.0000 </r>
       <r>   -3.9229    1.0000 </r>
       <r>   -3.9215    1.0000 </r>
       <r>   -3.9214    1.0000 </r>
       <r>   -3.8078    1.0000 </r>
       <r>   -3.7543    1.0000 </r>
       <r>   -3.7541    1.0000 </r>
       <r>   -3.7224    1.0000 </r>
       <r>   -3.6988    1.0000 </r>
       <r>   -3.5946    1.0000 </r>
       <r>   -3.5479    1.0000 </r>
       <r>   -3.5458    1.0000 </r>
       <r>   -3.5458    1.0000 </r>
       <r>   -3.5322    1.0000 </r>
       <r>   -3.4679    1.0000 </r>
       <r>   -3.4677    1.0000 </r>
       <r>   -3.4630    1.0000 </r>
       <r>   -3.3999    1.0000 </r>
       <r>   -3.3951    1.0000 </r>
       <r>   -3.3235    1.0000 </r>
       <r>   -3.3114    1.0000 </r>
       <r>   -3.3114    1.0000 </r>
       <r>   -3.2590    1.0000 </r>
       <r>   -3.2151    1.0000 </r>
       <r>   -3.2149    1.0000 </r>
       <r>   -3.1345    1.0000 </r>
       <r>   -3.1342    1.0000 </r>
       <r>   -3.1303    1.0000 </r>
       <r>   -3.1040    1.0000 </r>
       <r>   -3.0796    1.0000 </r>
       <r>   -3.0765    1.0000 </r>
       <r>   -3.0104    1.0000 </r>
       <r>   -3.0091    1.0000 </r>
       <r>   -2.9882    1.0000 </r>
       <r>   -2.9764    1.0000 </r>
       <r>   -2.9763    1.0000 </r>
       <r>   -2.9265    1.0000 </r>
       <r>   -2.7477    1.0000 </r>
       <r>   -2.7465    1.0000 </r>
       <r>   -2.7464    1.0000 </r>
       <r>   -2.7319    1.0000 </r>
       <r>   -2.6843    1.0000 </r>
       <r>   -2.6841    1.0000 </r>
       <r>   -2.5948    1.0000 </r>
       <r>   -2.5906    1.0000 </r>
       <r>   -2.5817    1.0000 </r>
       <r>   -2.5815    1.0000 </r>
       <r>   -2.5736    1.0000 </r>
       <r>   -2.4776    1.0000 </r>
       <r>   -2.4103    1.0000 </r>
       <r>   -2.4101    1.0000 </r>
       <r>   -2.3896    1.0000 </r>
       <r>   -2.3844    1.0000 </r>
       <r>   -2.3843    1.0000 </r>
       <r>   -2.3552    1.0000 </r>
       <r>   -2.3492    1.0000 </r>
       <r>   -2.2775    1.0000 </r>
       <r>   -2.2774    1.0000 </r>
       <r>   -2.2701    1.0000 </r>
       <r>   -2.1393    1.0000 </r>
       <r>   -2.0498    1.0000 </r>
       <r>   -2.0496    1.0000 </r>
       <r>   -1.8482    1.0000 </r>
       <r>   -1.8482    1.0000 </r>
       <r>   -0.7277    0.5556 </r>
       <r>   -0.5993    0.0910 </r>
       <r>   -0.5992    0.0908 </r>
       <r>    0.7953   -0.0000 </r>
       <r>    0.8208   -0.0000 </r>
       <r>    1.2218   -0.0000 </r>
       <r>    1.7145   -0.0000 </r>
       <r>    1.7146   -0.0000 </r>
       <r>    1.7560   -0.0000 </r>
       <r>    2.2991   -0.0000 </r>
       <r>    3.8475   -0.0000 </r>
       <r>    3.8749   -0.0000 </r>
       <r>    4.1059   -0.0000 </r>
       <r>    4.2208   -0.0000 </r>
       <r>    4.2208   -0.0000 </r>
       <r>    4.7379   -0.0000 </r>
       <r>    5.0322    0.0000 </r>
       <r>    5.1565    0.0000 </r>
       <r>    5.7065    0.0000 </r>
       <r>    5.7066    0.0000 </r>
       <r>    5.9501    0.0000 </r>
      </set>
      <set comment="kpoint 7">
       <r>   -7.3081    1.0000 </r>
       <r>   -7.3081    1.0000 </r>
       <r>   -6.2514    1.0000 </r>
       <r>   -6.2514    1.0000 </r>
       <r>   -6.1296    1.0000 </r>
       <r>   -5.3781    1.0000 </r>
       <r>   -5.0414    1.0000 </r>
       <r>   -5.0414    1.0000 </r>
       <r>   -4.7317    1.0000 </r>
       <r>   -4.6383    1.0000 </r>
       <r>   -4.5793    1.0000 </r>
       <r>   -4.5727    1.0000 </r>
       <r>   -4.5726    1.0000 </r>
       <r>   -4.5121    1.0000 </r>
       <r>   -4.3509    1.0000 </r>
       <r>   -4.3254    1.0000 </r>
       <r>   -4.2850    1.0000 </r>
       <r>   -4.2721    1.0000 </r>
       <r>   -4.2306    1.0000 </r>
       <r>   -4.2229    1.0000 </r>
       <r>   -4.2227    1.0000 </r>
       <r>   -4.0811    1.0000 </r>
       <r>   -4.0779    1.0000 </r>
       <r>   -4.0491    1.0000 </r>
       <r>   -4.0488    1.0000 </r>
       <r>   -4.0059    1.0000 </r>
       <r>   -3.9931    1.0000 </r>
       <r>   -3.9930    1.0000 </r>
       <r>   -3.8298    1.0000 </r>
       <r>   -3.8038    1.0000 </r>
       <r>   -3.7495    1.0000 </r>
       <r>   -3.7262    1.0000 </r>
       <r>   -3.7262    1.0000 </r>
       <r>   -3.7034    1.0000 </r>
       <r>   -3.6778    1.0000 </r>
       <r>   -3.6663    1.0000 </r>
       <r>   -3.6662    1.0000 </r>
       <r>   -3.6549    1.0000 </r>
       <r>   -3.6001    1.0000 </r>
       <r>   -3.6000    1.0000 </r>
       <r>   -3.4717    1.0000 </r>
       <r>   -3.4716    1.0000 </r>
       <r>   -3.4575    1.0000 </r>
       <r>   -3.3932    1.0000 </r>
       <r>   -3.3829    1.0000 </r>
       <r>   -3.3735    1.0000 </r>
       <r>   -3.3126    1.0000 </r>
       <r>   -3.3126    1.0000 </r>
       <r>   -3.2955    1.0000 </r>
       <r>   -3.2836    1.0000 </r>
       <r>   -3.1926    1.0000 </r>
       <r>   -3.1925    1.0000 </r>
       <r>   -3.0429    1.0000 </r>
       <r>   -3.0395    1.0000 </r>
       <r>   -3.0393    1.0000 </r>
       <r>   -3.0087    1.0000 </r>
       <r>   -3.0086    1.0000 </r>
       <r>   -2.9452    1.0000 </r>
       <r>   -2.8938    1.0000 </r>
       <r>   -2.8862    1.0000 </r>
       <r>   -2.8860    1.0000 </r>
       <r>   -2.8045    1.0000 </r>
       <r>   -2.7754    1.0000 </r>
       <r>   -2.7392    1.0000 </r>
       <r>   -2.7054    1.0000 </r>
       <r>   -2.7053    1.0000 </r>
       <r>   -2.6874    1.0000 </r>
       <r>   -2.6385    1.0000 </r>
       <r>   -2.6383    1.0000 </r>
       <r>   -2.5902    1.0000 </r>
       <r>   -2.5902    1.0000 </r>
       <r>   -2.5518    1.0000 </r>
       <r>   -2.5107    1.0000 </r>
       <r>   -2.5106    1.0000 </r>
       <r>   -2.4918    1.0000 </r>
       <r>   -2.4916    1.0000 </r>
       <r>   -2.4320    1.0000 </r>
       <r>   -2.4074    1.0000 </r>
       <r>   -2.3714    1.0000 </r>
       <r>   -2.3665    1.0000 </r>
       <r>   -2.3478    1.0000 </r>
       <r>   -2.3477    1.0000 </r>
       <r>   -2.3004    1.0000 </r>
       <r>   -2.2896    1.0000 </r>
       <r>   -1.9809    1.0000 </r>
       <r>   -1.7974    1.0000 </r>
       <r>   -1.6433    1.0000 </r>
       <r>   -1.6431    1.0000 </r>
       <r>   -0.6485    0.2368 </r>
       <r>    0.3019   -0.0000 </r>
       <r>    0.3019   -0.0000 </r>
       <r>    1.0155   -0.0000 </r>
       <r>    1.5840   -0.0000 </r>
       <r>    1.8713   -0.0000 </r>
       <r>    2.3554   -0.0000 </r>
       <r>    2.3555   -0.0000 </r>
       <r>    3.1808   -0.0000 </r>
       <r>    3.8107   -0.0000 </r>
       <r>    3.8927   -0.0000 </r>
       <r>    3.9928   -0.0000 </r>
       <r>    4.8434    0.0000 </r>
       <r>    4.9150    0.0000 </r>
       <r>    4.9151    0.0000 </r>
       <r>    5.0535    0.0000 </r>
       <r>    5.3014    0.0000 </r>
       <r>    5.3014    0.0000 </r>
       <r>    5.9257    0.0000 </r>
       <r>    6.2263    0.0000 </r>
      </set>
      <set comment="kpoint 8">
       <r>   -8.4183    1.0000 </r>
       <r>   -7.2295    1.0000 </r>
       <r>   -6.0006    1.0000 </r>
       <r>   -6.0006    1.0000 </r>
       <r>   -5.7149    1.0000 </r>
       <r>   -5.3818    1.0000 </r>
       <r>   -5.3817    1.0000 </r>
       <r>   -5.0413    1.0000 </r>
       <r>   -4.8761    1.0000 </r>
       <r>   -4.8498    1.0000 </r>
       <r>   -4.8498    1.0000 </r>
       <r>   -4.8447    1.0000 </r>
       <r>   -4.5754    1.0000 </r>
       <r>   -4.5754    1.0000 </r>
       <r>   -4.5485    1.0000 </r>
       <r>   -4.4817    1.0000 </r>
       <r>   -4.3919    1.0000 </r>
       <r>   -4.3817    1.0000 </r>
       <r>   -4.3817    1.0000 </r>
       <r>   -4.2043    1.0000 </r>
       <r>   -4.2042    1.0000 </r>
       <r>   -4.1794    1.0000 </r>
       <r>   -4.0929    1.0000 </r>
       <r>   -3.9656    1.0000 </r>
       <r>   -3.9230    1.0000 </r>
       <r>   -3.9215    1.0000 </r>
       <r>   -3.9214    1.0000 </r>
       <r>   -3.8079    1.0000 </r>
       <r>   -3.7543    1.0000 </r>
       <r>   -3.7541    1.0000 </r>
       <r>   -3.7224    1.0000 </r>
       <r>   -3.6988    1.0000 </r>
       <r>   -3.5947    1.0000 </r>
       <r>   -3.5480    1.0000 </r>
       <r>   -3.5458    1.0000 </r>
       <r>   -3.5457    1.0000 </r>
       <r>   -3.5323    1.0000 </r>
       <r>   -3.4678    1.0000 </r>
       <r>   -3.4678    1.0000 </r>
       <r>   -3.4630    1.0000 </r>
       <r>   -3.3999    1.0000 </r>
       <r>   -3.3951    1.0000 </r>
       <r>   -3.3235    1.0000 </r>
       <r>   -3.3114    1.0000 </r>
       <r>   -3.3114    1.0000 </r>
       <r>   -3.2589    1.0000 </r>
       <r>   -3.2150    1.0000 </r>
       <r>   -3.2149    1.0000 </r>
       <r>   -3.1343    1.0000 </r>
       <r>   -3.1343    1.0000 </r>
       <r>   -3.1304    1.0000 </r>
       <r>   -3.1039    1.0000 </r>
       <r>   -3.0794    1.0000 </r>
       <r>   -3.0765    1.0000 </r>
       <r>   -3.0104    1.0000 </r>
       <r>   -3.0091    1.0000 </r>
       <r>   -2.9882    1.0000 </r>
       <r>   -2.9763    1.0000 </r>
       <r>   -2.9762    1.0000 </r>
       <r>   -2.9265    1.0000 </r>
       <r>   -2.7478    1.0000 </r>
       <r>   -2.7465    1.0000 </r>
       <r>   -2.7463    1.0000 </r>
       <r>   -2.7318    1.0000 </r>
       <r>   -2.6842    1.0000 </r>
       <r>   -2.6841    1.0000 </r>
       <r>   -2.5948    1.0000 </r>
       <r>   -2.5907    1.0000 </r>
       <r>   -2.5817    1.0000 </r>
       <r>   -2.5815    1.0000 </r>
       <r>   -2.5736    1.0000 </r>
       <r>   -2.4777    1.0000 </r>
       <r>   -2.4103    1.0000 </r>
       <r>   -2.4102    1.0000 </r>
       <r>   -2.3896    1.0000 </r>
       <r>   -2.3844    1.0000 </r>
       <r>   -2.3844    1.0000 </r>
       <r>   -2.3553    1.0000 </r>
       <r>   -2.3492    1.0000 </r>
       <r>   -2.2775    1.0000 </r>
       <r>   -2.2775    1.0000 </r>
       <r>   -2.2701    1.0000 </r>
       <r>   -2.1393    1.0000 </r>
       <r>   -2.0498    1.0000 </r>
       <r>   -2.0497    1.0000 </r>
       <r>   -1.8483    1.0000 </r>
       <r>   -1.8482    1.0000 </r>
       <r>   -0.7277    0.5556 </r>
       <r>   -0.5993    0.0909 </r>
       <r>   -0.5993    0.0908 </r>
       <r>    0.7953   -0.0000 </r>
       <r>    0.8208   -0.0000 </r>
       <r>    1.2218   -0.0000 </r>
       <r>    1.7145   -0.0000 </r>
       <r>    1.7146   -0.0000 </r>
       <r>    1.7560   -0.0000 </r>
       <r>    2.2991   -0.0000 </r>
       <r>    3.8475   -0.0000 </r>
       <r>    3.8750   -0.0000 </r>
       <r>    4.1059   -0.0000 </r>
       <r>    4.2208   -0.0000 </r>
       <r>    4.2208   -0.0000 </r>
       <r>    4.7380   -0.0000 </r>
       <r>    5.0322    0.0000 </r>
       <r>    5.1565    0.0000 </r>
       <r>    5.7065    0.0000 </r>
       <r>    5.7065    0.0000 </r>
       <r>    5.9501    0.0000 </r>
      </set>
      <set comment="kpoint 9">
       <r>   -8.1307    1.0000 </r>
       <r>   -6.9679    1.0000 </r>
       <r>   -6.8313    1.0000 </r>
       <r>   -5.9118    1.0000 </r>
       <r>   -5.5154    1.0000 </r>
       <r>   -5.1324    1.0000 </r>
       <r>   -5.1323    1.0000 </r>
       <r>   -4.9910    1.0000 </r>
       <r>   -4.9082    1.0000 </r>
       <r>   -4.8998    1.0000 </r>
       <r>   -4.8995    1.0000 </r>
       <r>   -4.6625    1.0000 </r>
       <r>   -4.6620    1.0000 </r>
       <r>   -4.6061    1.0000 </r>
       <r>   -4.4738    1.0000 </r>
       <r>   -4.4736    1.0000 </r>
       <r>   -4.3895    1.0000 </r>
       <r>   -4.2870    1.0000 </r>
       <r>   -4.2865    1.0000 </r>
       <r>   -4.1430    1.0000 </r>
       <r>   -4.1428    1.0000 </r>
       <r>   -4.1181    1.0000 </r>
       <r>   -4.1066    1.0000 </r>
       <r>   -4.0459    1.0000 </r>
       <r>   -4.0457    1.0000 </r>
       <r>   -3.9163    1.0000 </r>
       <r>   -3.8975    1.0000 </r>
       <r>   -3.8657    1.0000 </r>
       <r>   -3.8090    1.0000 </r>
       <r>   -3.8088    1.0000 </r>
       <r>   -3.7283    1.0000 </r>
       <r>   -3.7279    1.0000 </r>
       <r>   -3.7164    1.0000 </r>
       <r>   -3.5917    1.0000 </r>
       <r>   -3.5653    1.0000 </r>
       <r>   -3.5182    1.0000 </r>
       <r>   -3.4729    1.0000 </r>
       <r>   -3.4338    1.0000 </r>
       <r>   -3.4338    1.0000 </r>
       <r>   -3.3977    1.0000 </r>
       <r>   -3.3684    1.0000 </r>
       <r>   -3.3682    1.0000 </r>
       <r>   -3.3581    1.0000 </r>
       <r>   -3.3246    1.0000 </r>
       <r>   -3.3186    1.0000 </r>
       <r>   -3.3185    1.0000 </r>
       <r>   -3.3094    1.0000 </r>
       <r>   -3.2618    1.0000 </r>
       <r>   -3.2617    1.0000 </r>
       <r>   -3.2594    1.0000 </r>
       <r>   -3.1928    1.0000 </r>
       <r>   -3.1627    1.0000 </r>
       <r>   -3.1526    1.0000 </r>
       <r>   -3.0751    1.0000 </r>
       <r>   -3.0444    1.0000 </r>
       <r>   -3.0033    1.0000 </r>
       <r>   -3.0030    1.0000 </r>
       <r>   -2.9974    1.0000 </r>
       <r>   -2.9855    1.0000 </r>
       <r>   -2.8590    1.0000 </r>
       <r>   -2.8130    1.0000 </r>
       <r>   -2.7666    1.0000 </r>
       <r>   -2.7662    1.0000 </r>
       <r>   -2.7512    1.0000 </r>
       <r>   -2.7370    1.0000 </r>
       <r>   -2.7054    1.0000 </r>
       <r>   -2.7048    1.0000 </r>
       <r>   -2.6845    1.0000 </r>
       <r>   -2.6577    1.0000 </r>
       <r>   -2.6441    1.0000 </r>
       <r>   -2.6435    1.0000 </r>
       <r>   -2.5770    1.0000 </r>
       <r>   -2.5705    1.0000 </r>
       <r>   -2.5513    1.0000 </r>
       <r>   -2.4857    1.0000 </r>
       <r>   -2.4618    1.0000 </r>
       <r>   -2.4000    1.0000 </r>
       <r>   -2.3997    1.0000 </r>
       <r>   -2.2967    1.0000 </r>
       <r>   -2.2901    1.0000 </r>
       <r>   -2.2896    1.0000 </r>
       <r>   -2.2800    1.0000 </r>
       <r>   -2.2073    1.0000 </r>
       <r>   -2.2064    1.0000 </r>
       <r>   -2.0616    1.0000 </r>
       <r>   -1.4383    1.0000 </r>
       <r>   -0.9070    1.0207 </r>
       <r>   -0.9064    1.0203 </r>
       <r>   -0.4627   -0.0353 </r>
       <r>   -0.3209   -0.0089 </r>
       <r>   -0.3207   -0.0088 </r>
       <r>    0.7411   -0.0000 </r>
       <r>    1.0862   -0.0000 </r>
       <r>    1.0862   -0.0000 </r>
       <r>    1.2351   -0.0000 </r>
       <r>    3.0089   -0.0000 </r>
       <r>    3.2147   -0.0000 </r>
       <r>    3.2148   -0.0000 </r>
       <r>    4.1136   -0.0000 </r>
       <r>    4.4051   -0.0000 </r>
       <r>    4.6637   -0.0000 </r>
       <r>    4.6638   -0.0000 </r>
       <r>    5.3286    0.0000 </r>
       <r>    5.4182    0.0000 </r>
       <r>    5.4184    0.0000 </r>
       <r>    5.5732    0.0000 </r>
       <r>    5.5733    0.0000 </r>
       <r>    5.9035    0.0000 </r>
      </set>
      <set comment="kpoint 10">
       <r>   -8.4183    1.0000 </r>
       <r>   -7.2295    1.0000 </r>
       <r>   -6.0007    1.0000 </r>
       <r>   -6.0006    1.0000 </r>
       <r>   -5.7149    1.0000 </r>
       <r>   -5.3818    1.0000 </r>
       <r>   -5.3818    1.0000 </r>
       <r>   -5.0413    1.0000 </r>
       <r>   -4.8761    1.0000 </r>
       <r>   -4.8498    1.0000 </r>
       <r>   -4.8498    1.0000 </r>
       <r>   -4.8447    1.0000 </r>
       <r>   -4.5754    1.0000 </r>
       <r>   -4.5753    1.0000 </r>
       <r>   -4.5486    1.0000 </r>
       <r>   -4.4818    1.0000 </r>
       <r>   -4.3919    1.0000 </r>
       <r>   -4.3817    1.0000 </r>
       <r>   -4.3816    1.0000 </r>
       <r>   -4.2042    1.0000 </r>
       <r>   -4.2042    1.0000 </r>
       <r>   -4.1795    1.0000 </r>
       <r>   -4.0929    1.0000 </r>
       <r>   -3.9656    1.0000 </r>
       <r>   -3.9229    1.0000 </r>
       <r>   -3.9215    1.0000 </r>
       <r>   -3.9214    1.0000 </r>
       <r>   -3.8078    1.0000 </r>
       <r>   -3.7543    1.0000 </r>
       <r>   -3.7541    1.0000 </r>
       <r>   -3.7224    1.0000 </r>
       <r>   -3.6988    1.0000 </r>
       <r>   -3.5946    1.0000 </r>
       <r>   -3.5479    1.0000 </r>
       <r>   -3.5458    1.0000 </r>
       <r>   -3.5458    1.0000 </r>
       <r>   -3.5322    1.0000 </r>
       <r>   -3.4679    1.0000 </r>
       <r>   -3.4677    1.0000 </r>
       <r>   -3.4630    1.0000 </r>
       <r>   -3.3999    1.0000 </r>
       <r>   -3.3951    1.0000 </r>
       <r>   -3.3235    1.0000 </r>
       <r>   -3.3114    1.0000 </r>
       <r>   -3.3114    1.0000 </r>
       <r>   -3.2590    1.0000 </r>
       <r>   -3.2150    1.0000 </r>
       <r>   -3.2150    1.0000 </r>
       <r>   -3.1344    1.0000 </r>
       <r>   -3.1343    1.0000 </r>
       <r>   -3.1303    1.0000 </r>
       <r>   -3.1040    1.0000 </r>
       <r>   -3.0796    1.0000 </r>
       <r>   -3.0765    1.0000 </r>
       <r>   -3.0104    1.0000 </r>
       <r>   -3.0091    1.0000 </r>
       <r>   -2.9882    1.0000 </r>
       <r>   -2.9764    1.0000 </r>
       <r>   -2.9763    1.0000 </r>
       <r>   -2.9265    1.0000 </r>
       <r>   -2.7477    1.0000 </r>
       <r>   -2.7465    1.0000 </r>
       <r>   -2.7464    1.0000 </r>
       <r>   -2.7319    1.0000 </r>
       <r>   -2.6842    1.0000 </r>
       <r>   -2.6842    1.0000 </r>
       <r>   -2.5948    1.0000 </r>
       <r>   -2.5906    1.0000 </r>
       <r>   -2.5817    1.0000 </r>
       <r>   -2.5816    1.0000 </r>
       <r>   -2.5736    1.0000 </r>
       <r>   -2.4776    1.0000 </r>
       <r>   -2.4103    1.0000 </r>
       <r>   -2.4102    1.0000 </r>
       <r>   -2.3896    1.0000 </r>
       <r>   -2.3844    1.0000 </r>
       <r>   -2.3843    1.0000 </r>
       <r>   -2.3552    1.0000 </r>
       <r>   -2.3492    1.0000 </r>
       <r>   -2.2775    1.0000 </r>
       <r>   -2.2774    1.0000 </r>
       <r>   -2.2701    1.0000 </r>
       <r>   -2.1393    1.0000 </r>
       <r>   -2.0498    1.0000 </r>
       <r>   -2.0496    1.0000 </r>
       <r>   -1.8482    1.0000 </r>
       <r>   -1.8482    1.0000 </r>
       <r>   -0.7277    0.5556 </r>
       <r>   -0.5993    0.0909 </r>
       <r>   -0.5993    0.0908 </r>
       <r>    0.7953   -0.0000 </r>
       <r>    0.8208   -0.0000 </r>
       <r>    1.2218   -0.0000 </r>
       <r>    1.7145   -0.0000 </r>
       <r>    1.7145   -0.0000 </r>
       <r>    1.7560   -0.0000 </r>
       <r>    2.2991   -0.0000 </r>
       <r>    3.8475   -0.0000 </r>
       <r>    3.8749   -0.0000 </r>
       <r>    4.1059   -0.0000 </r>
       <r>    4.2208   -0.0000 </r>
       <r>    4.2208   -0.0000 </r>
       <r>    4.7379   -0.0000 </r>
       <r>    5.0322    0.0000 </r>
       <r>    5.1565    0.0000 </r>
       <r>    5.7065    0.0000 </r>
       <r>    5.7065    0.0000 </r>
       <r>    5.9501    0.0000 </r>
      </set>
      <set comment="kpoint 11">
       <r>   -8.1307    1.0000 </r>
       <r>   -6.9679    1.0000 </r>
       <r>   -6.8313    1.0000 </r>
       <r>   -5.9118    1.0000 </r>
       <r>   -5.5155    1.0000 </r>
       <r>   -5.1323    1.0000 </r>
       <r>   -5.1322    1.0000 </r>
       <r>   -4.9910    1.0000 </r>
       <r>   -4.9081    1.0000 </r>
       <r>   -4.8997    1.0000 </r>
       <r>   -4.8995    1.0000 </r>
       <r>   -4.6624    1.0000 </r>
       <r>   -4.6621    1.0000 </r>
       <r>   -4.6060    1.0000 </r>
       <r>   -4.4739    1.0000 </r>
       <r>   -4.4737    1.0000 </r>
       <r>   -4.3894    1.0000 </r>
       <r>   -4.2869    1.0000 </r>
       <r>   -4.2867    1.0000 </r>
       <r>   -4.1430    1.0000 </r>
       <r>   -4.1429    1.0000 </r>
       <r>   -4.1180    1.0000 </r>
       <r>   -4.1065    1.0000 </r>
       <r>   -4.0459    1.0000 </r>
       <r>   -4.0457    1.0000 </r>
       <r>   -3.9162    1.0000 </r>
       <r>   -3.8975    1.0000 </r>
       <r>   -3.8657    1.0000 </r>
       <r>   -3.8090    1.0000 </r>
       <r>   -3.8088    1.0000 </r>
       <r>   -3.7282    1.0000 </r>
       <r>   -3.7279    1.0000 </r>
       <r>   -3.7163    1.0000 </r>
       <r>   -3.5916    1.0000 </r>
       <r>   -3.5652    1.0000 </r>
       <r>   -3.5182    1.0000 </r>
       <r>   -3.4728    1.0000 </r>
       <r>   -3.4338    1.0000 </r>
       <r>   -3.4338    1.0000 </r>
       <r>   -3.3978    1.0000 </r>
       <r>   -3.3683    1.0000 </r>
       <r>   -3.3683    1.0000 </r>
       <r>   -3.3581    1.0000 </r>
       <r>   -3.3246    1.0000 </r>
       <r>   -3.3186    1.0000 </r>
       <r>   -3.3185    1.0000 </r>
       <r>   -3.3093    1.0000 </r>
       <r>   -3.2618    1.0000 </r>
       <r>   -3.2618    1.0000 </r>
       <r>   -3.2594    1.0000 </r>
       <r>   -3.1929    1.0000 </r>
       <r>   -3.1626    1.0000 </r>
       <r>   -3.1526    1.0000 </r>
       <r>   -3.0752    1.0000 </r>
       <r>   -3.0445    1.0000 </r>
       <r>   -3.0032    1.0000 </r>
       <r>   -3.0031    1.0000 </r>
       <r>   -2.9976    1.0000 </r>
       <r>   -2.9855    1.0000 </r>
       <r>   -2.8591    1.0000 </r>
       <r>   -2.8131    1.0000 </r>
       <r>   -2.7664    1.0000 </r>
       <r>   -2.7664    1.0000 </r>
       <r>   -2.7512    1.0000 </r>
       <r>   -2.7370    1.0000 </r>
       <r>   -2.7052    1.0000 </r>
       <r>   -2.7050    1.0000 </r>
       <r>   -2.6846    1.0000 </r>
       <r>   -2.6578    1.0000 </r>
       <r>   -2.6439    1.0000 </r>
       <r>   -2.6437    1.0000 </r>
       <r>   -2.5771    1.0000 </r>
       <r>   -2.5705    1.0000 </r>
       <r>   -2.5514    1.0000 </r>
       <r>   -2.4857    1.0000 </r>
       <r>   -2.4618    1.0000 </r>
       <r>   -2.3999    1.0000 </r>
       <r>   -2.3998    1.0000 </r>
       <r>   -2.2968    1.0000 </r>
       <r>   -2.2898    1.0000 </r>
       <r>   -2.2897    1.0000 </r>
       <r>   -2.2800    1.0000 </r>
       <r>   -2.2069    1.0000 </r>
       <r>   -2.2064    1.0000 </r>
       <r>   -2.0616    1.0000 </r>
       <r>   -1.4383    1.0000 </r>
       <r>   -0.9068    1.0206 </r>
       <r>   -0.9065    1.0204 </r>
       <r>   -0.4627   -0.0353 </r>
       <r>   -0.3208   -0.0088 </r>
       <r>   -0.3208   -0.0088 </r>
       <r>    0.7411   -0.0000 </r>
       <r>    1.0861   -0.0000 </r>
       <r>    1.0862   -0.0000 </r>
       <r>    1.2351   -0.0000 </r>
       <r>    3.0089   -0.0000 </r>
       <r>    3.2147   -0.0000 </r>
       <r>    3.2148   -0.0000 </r>
       <r>    4.1136   -0.0000 </r>
       <r>    4.4051   -0.0000 </r>
       <r>    4.6637   -0.0000 </r>
       <r>    4.6637   -0.0000 </r>
       <r>    5.3286    0.0000 </r>
       <r>    5.4182    0.0000 </r>
       <r>    5.4184    0.0000 </r>
       <r>    5.5732    0.0000 </r>
       <r>    5.5733    0.0000 </r>
       <r>    5.9029    0.0000 </r>
      </set>
      <set comment="kpoint 12">
       <r>   -7.3081    1.0000 </r>
       <r>   -7.3081    1.0000 </r>
       <r>   -6.2514    1.0000 </r>
       <r>   -6.2514    1.0000 </r>
       <r>   -6.1296    1.0000 </r>
       <r>   -5.3780    1.0000 </r>
       <r>   -5.0414    1.0000 </r>
       <r>   -5.0414    1.0000 </r>
       <r>   -4.7317    1.0000 </r>
       <r>   -4.6383    1.0000 </r>
       <r>   -4.5793    1.0000 </r>
       <r>   -4.5727    1.0000 </r>
       <r>   -4.5725    1.0000 </r>
       <r>   -4.5121    1.0000 </r>
       <r>   -4.3509    1.0000 </r>
       <r>   -4.3255    1.0000 </r>
       <r>   -4.2851    1.0000 </r>
       <r>   -4.2721    1.0000 </r>
       <r>   -4.2306    1.0000 </r>
       <r>   -4.2229    1.0000 </r>
       <r>   -4.2226    1.0000 </r>
       <r>   -4.0812    1.0000 </r>
       <r>   -4.0780    1.0000 </r>
       <r>   -4.0491    1.0000 </r>
       <r>   -4.0488    1.0000 </r>
       <r>   -4.0060    1.0000 </r>
       <r>   -3.9931    1.0000 </r>
       <r>   -3.9929    1.0000 </r>
       <r>   -3.8298    1.0000 </r>
       <r>   -3.8039    1.0000 </r>
       <r>   -3.7495    1.0000 </r>
       <r>   -3.7262    1.0000 </r>
       <r>   -3.7261    1.0000 </r>
       <r>   -3.7034    1.0000 </r>
       <r>   -3.6778    1.0000 </r>
       <r>   -3.6662    1.0000 </r>
       <r>   -3.6662    1.0000 </r>
       <r>   -3.6549    1.0000 </r>
       <r>   -3.6000    1.0000 </r>
       <r>   -3.5999    1.0000 </r>
       <r>   -3.4718    1.0000 </r>
       <r>   -3.4716    1.0000 </r>
       <r>   -3.4575    1.0000 </r>
       <r>   -3.3932    1.0000 </r>
       <r>   -3.3829    1.0000 </r>
       <r>   -3.3735    1.0000 </r>
       <r>   -3.3126    1.0000 </r>
       <r>   -3.3124    1.0000 </r>
       <r>   -3.2955    1.0000 </r>
       <r>   -3.2837    1.0000 </r>
       <r>   -3.1927    1.0000 </r>
       <r>   -3.1924    1.0000 </r>
       <r>   -3.0429    1.0000 </r>
       <r>   -3.0396    1.0000 </r>
       <r>   -3.0394    1.0000 </r>
       <r>   -3.0087    1.0000 </r>
       <r>   -3.0086    1.0000 </r>
       <r>   -2.9452    1.0000 </r>
       <r>   -2.8938    1.0000 </r>
       <r>   -2.8863    1.0000 </r>
       <r>   -2.8860    1.0000 </r>
       <r>   -2.8045    1.0000 </r>
       <r>   -2.7753    1.0000 </r>
       <r>   -2.7391    1.0000 </r>
       <r>   -2.7055    1.0000 </r>
       <r>   -2.7053    1.0000 </r>
       <r>   -2.6874    1.0000 </r>
       <r>   -2.6385    1.0000 </r>
       <r>   -2.6384    1.0000 </r>
       <r>   -2.5904    1.0000 </r>
       <r>   -2.5901    1.0000 </r>
       <r>   -2.5518    1.0000 </r>
       <r>   -2.5107    1.0000 </r>
       <r>   -2.5106    1.0000 </r>
       <r>   -2.4919    1.0000 </r>
       <r>   -2.4916    1.0000 </r>
       <r>   -2.4320    1.0000 </r>
       <r>   -2.4074    1.0000 </r>
       <r>   -2.3713    1.0000 </r>
       <r>   -2.3664    1.0000 </r>
       <r>   -2.3479    1.0000 </r>
       <r>   -2.3477    1.0000 </r>
       <r>   -2.3003    1.0000 </r>
       <r>   -2.2895    1.0000 </r>
       <r>   -1.9808    1.0000 </r>
       <r>   -1.7973    1.0000 </r>
       <r>   -1.6433    1.0000 </r>
       <r>   -1.6431    1.0000 </r>
       <r>   -0.6486    0.2369 </r>
       <r>    0.3019   -0.0000 </r>
       <r>    0.3019   -0.0000 </r>
       <r>    1.0156   -0.0000 </r>
       <r>    1.5840   -0.0000 </r>
       <r>    1.8713   -0.0000 </r>
       <r>    2.3554   -0.0000 </r>
       <r>    2.3555   -0.0000 </r>
       <r>    3.1808   -0.0000 </r>
       <r>    3.8108   -0.0000 </r>
       <r>    3.8927   -0.0000 </r>
       <r>    3.9928   -0.0000 </r>
       <r>    4.8434    0.0000 </r>
       <r>    4.9150    0.0000 </r>
       <r>    4.9151    0.0000 </r>
       <r>    5.0535    0.0000 </r>
       <r>    5.3014    0.0000 </r>
       <r>    5.3014    0.0000 </r>
       <r>    5.9257    0.0000 </r>
       <r>    6.2249    0.0000 </r>
      </set>
      <set comment="kpoint 13">
       <r>   -7.3082    1.0000 </r>
       <r>   -7.3080    1.0000 </r>
       <r>   -6.2514    1.0000 </r>
       <r>   -6.2514    1.0000 </r>
       <r>   -6.1296    1.0000 </r>
       <r>   -5.3781    1.0000 </r>
       <r>   -5.0414    1.0000 </r>
       <r>   -5.0414    1.0000 </r>
       <r>   -4.7317    1.0000 </r>
       <r>   -4.6383    1.0000 </r>
       <r>   -4.5793    1.0000 </r>
       <r>   -4.5728    1.0000 </r>
       <r>   -4.5725    1.0000 </r>
       <r>   -4.5121    1.0000 </r>
       <r>   -4.3509    1.0000 </r>
       <r>   -4.3254    1.0000 </r>
       <r>   -4.2850    1.0000 </r>
       <r>   -4.2721    1.0000 </r>
       <r>   -4.2306    1.0000 </r>
       <r>   -4.2230    1.0000 </r>
       <r>   -4.2226    1.0000 </r>
       <r>   -4.0811    1.0000 </r>
       <r>   -4.0779    1.0000 </r>
       <r>   -4.0492    1.0000 </r>
       <r>   -4.0487    1.0000 </r>
       <r>   -4.0059    1.0000 </r>
       <r>   -3.9931    1.0000 </r>
       <r>   -3.9930    1.0000 </r>
       <r>   -3.8298    1.0000 </r>
       <r>   -3.8038    1.0000 </r>
       <r>   -3.7495    1.0000 </r>
       <r>   -3.7262    1.0000 </r>
       <r>   -3.7262    1.0000 </r>
       <r>   -3.7034    1.0000 </r>
       <r>   -3.6778    1.0000 </r>
       <r>   -3.6664    1.0000 </r>
       <r>   -3.6662    1.0000 </r>
       <r>   -3.6549    1.0000 </r>
       <r>   -3.6001    1.0000 </r>
       <r>   -3.5999    1.0000 </r>
       <r>   -3.4717    1.0000 </r>
       <r>   -3.4716    1.0000 </r>
       <r>   -3.4575    1.0000 </r>
       <r>   -3.3932    1.0000 </r>
       <r>   -3.3829    1.0000 </r>
       <r>   -3.3735    1.0000 </r>
       <r>   -3.3127    1.0000 </r>
       <r>   -3.3125    1.0000 </r>
       <r>   -3.2955    1.0000 </r>
       <r>   -3.2836    1.0000 </r>
       <r>   -3.1927    1.0000 </r>
       <r>   -3.1924    1.0000 </r>
       <r>   -3.0429    1.0000 </r>
       <r>   -3.0396    1.0000 </r>
       <r>   -3.0392    1.0000 </r>
       <r>   -3.0087    1.0000 </r>
       <r>   -3.0086    1.0000 </r>
       <r>   -2.9452    1.0000 </r>
       <r>   -2.8938    1.0000 </r>
       <r>   -2.8862    1.0000 </r>
       <r>   -2.8859    1.0000 </r>
       <r>   -2.8045    1.0000 </r>
       <r>   -2.7754    1.0000 </r>
       <r>   -2.7392    1.0000 </r>
       <r>   -2.7054    1.0000 </r>
       <r>   -2.7053    1.0000 </r>
       <r>   -2.6874    1.0000 </r>
       <r>   -2.6386    1.0000 </r>
       <r>   -2.6382    1.0000 </r>
       <r>   -2.5903    1.0000 </r>
       <r>   -2.5901    1.0000 </r>
       <r>   -2.5518    1.0000 </r>
       <r>   -2.5107    1.0000 </r>
       <r>   -2.5106    1.0000 </r>
       <r>   -2.4919    1.0000 </r>
       <r>   -2.4916    1.0000 </r>
       <r>   -2.4320    1.0000 </r>
       <r>   -2.4074    1.0000 </r>
       <r>   -2.3714    1.0000 </r>
       <r>   -2.3664    1.0000 </r>
       <r>   -2.3479    1.0000 </r>
       <r>   -2.3476    1.0000 </r>
       <r>   -2.3004    1.0000 </r>
[...]
       <set comment="band 84">
        <r>  0.0001  0.0002  0.0388 </r>
        <r>  0.0001  0.0002  0.0387 </r>
        <r>  0.0001  0.0001  0.0346 </r>
        <r>  0.0001  0.0001  0.0347 </r>
        <r>  0.0000  0.0002  0.0838 </r>
        <r>  0.0000  0.0002  0.0841 </r>
        <r>  0.0000  0.0002  0.0957 </r>
        <r>  0.0000  0.0002  0.0957 </r>
        <r>  0.0000  0.0002  0.0916 </r>
        <r>  0.0000  0.0002  0.0916 </r>
        <r>  0.0000  0.0002  0.0799 </r>
        <r>  0.0000  0.0002  0.0801 </r>
        <r>  0.0001  0.0002  0.0363 </r>
        <r>  0.0001  0.0002  0.0362 </r>
        <r>  0.0001  0.0001  0.0321 </r>
        <r>  0.0001  0.0001  0.0322 </r>
       </set>
       <set comment="band 85">
        <r>  0.0016  0.0020  0.0399 </r>
        <r>  0.0016  0.0020  0.0399 </r>
        <r>  0.0017  0.0020  0.0399 </r>
        <r>  0.0016  0.0020  0.0399 </r>
        <r>  0.0053  0.0046  0.0662 </r>
        <r>  0.0053  0.0046  0.0663 </r>
        <r>  0.0053  0.0046  0.0662 </r>
        <r>  0.0053  0.0046  0.0662 </r>
        <r>  0.0057  0.0048  0.0671 </r>
        <r>  0.0057  0.0048  0.0670 </r>
        <r>  0.0057  0.0048  0.0669 </r>
        <r>  0.0057  0.0048  0.0669 </r>
        <r>  0.0021  0.0024  0.0456 </r>
        <r>  0.0021  0.0024  0.0456 </r>
        <r>  0.0021  0.0024  0.0456 </r>
        <r>  0.0021  0.0024  0.0456 </r>
       </set>
       <set comment="band 86">
        <r>  0.0114  0.0108  0.0686 </r>
        <r>  0.0114  0.0108  0.0685 </r>
        <r>  0.0114  0.0108  0.0685 </r>
        <r>  0.0114  0.0108  0.0685 </r>
        <r>  0.0032  0.0053  0.0259 </r>
        <r>  0.0032  0.0053  0.0260 </r>
        <r>  0.0032  0.0053  0.0260 </r>
        <r>  0.0032  0.0053  0.0260 </r>
        <r>  0.0028  0.0050  0.0242 </r>
        <r>  0.0028  0.0050  0.0242 </r>
        <r>  0.0028  0.0050  0.0241 </r>
        <r>  0.0028  0.0050  0.0241 </r>
        <r>  0.0108  0.0103  0.0624 </r>
        <r>  0.0108  0.0103  0.0624 </r>
        <r>  0.0108  0.0103  0.0624 </r>
        <r>  0.0108  0.0103  0.0624 </r>
       </set>
       <set comment="band 87">
        <r>  0.0001  0.0091  0.0210 </r>
        <r>  0.0001  0.0091  0.0210 </r>
        <r>  0.0293  0.0058  0.0367 </r>
        <r>  0.0293  0.0058  0.0368 </r>
        <r>  0.0033  0.0066  0.0771 </r>
        <r>  0.0033  0.0066  0.0773 </r>
        <r>  0.0075  0.0080  0.0252 </r>
        <r>  0.0075  0.0080  0.0252 </r>
        <r>  0.0082  0.0092  0.0214 </r>
        <r>  0.0082  0.0092  0.0214 </r>
        <r>  0.0016  0.0055  0.0815 </r>
        <r>  0.0016  0.0055  0.0815 </r>
        <r>  0.0008  0.0090  0.0236 </r>
        <r>  0.0008  0.0090  0.0236 </r>
        <r>  0.0279  0.0061  0.0333 </r>
        <r>  0.0279  0.0061  0.0333 </r>
       </set>
       <set comment="band 88">
        <r>  0.0293  0.0058  0.0368 </r>
        <r>  0.0293  0.0058  0.0368 </r>
        <r>  0.0001  0.0091  0.0210 </r>
        <r>  0.0001  0.0091  0.0210 </r>
        <r>  0.0075  0.0080  0.0251 </r>
        <r>  0.0075  0.0080  0.0252 </r>
        <r>  0.0033  0.0066  0.0773 </r>
        <r>  0.0033  0.0066  0.0772 </r>
        <r>  0.0016  0.0055  0.0815 </r>
        <r>  0.0016  0.0055  0.0816 </r>
        <r>  0.0082  0.0092  0.0214 </r>
        <r>  0.0082  0.0092  0.0214 </r>
        <r>  0.0279  0.0061  0.0333 </r>
        <r>  0.0279  0.0061  0.0333 </r>
        <r>  0.0008  0.0090  0.0236 </r>
        <r>  0.0008  0.0090  0.0236 </r>
       </set>
       <set comment="band 89">
        <r>  0.0208  0.0182  0.0227 </r>
        <r>  0.0208  0.0182  0.0227 </r>
        <r>  0.0208  0.0182  0.0227 </r>
        <r>  0.0208  0.0182  0.0227 </r>
        <r>  0.0069  0.0145  0.0305 </r>
        <r>  0.0069  0.0145  0.0306 </r>
        <r>  0.0069  0.0145  0.0306 </r>
        <r>  0.0069  0.0145  0.0306 </r>
        <r>  0.0062  0.0144  0.0307 </r>
        <r>  0.0062  0.0144  0.0307 </r>
        <r>  0.0062  0.0144  0.0306 </r>
        <r>  0.0062  0.0144  0.0306 </r>
        <r>  0.0202  0.0179  0.0222 </r>
        <r>  0.0202  0.0179  0.0222 </r>
        <r>  0.0202  0.0179  0.0222 </r>
        <r>  0.0202  0.0179  0.0222 </r>
       </set>
       <set comment="band 90">
        <r>  0.0174  0.0382  0.0127 </r>
        <r>  0.0174  0.0382  0.0127 </r>
        <r>  0.0002  0.0054  0.0327 </r>
        <r>  0.0002  0.0054  0.0327 </r>
        <r>  0.0232  0.0103  0.0208 </r>
        <r>  0.0232  0.0103  0.0208 </r>
        <r>  0.0129  0.0106  0.0118 </r>
        <r>  0.0129  0.0106  0.0118 </r>
        <r>  0.0045  0.0124  0.0075 </r>
        <r>  0.0045  0.0124  0.0075 </r>
        <r>  0.0320  0.0077  0.0246 </r>
        <r>  0.0320  0.0077  0.0246 </r>
        <r>  0.0171  0.0382  0.0134 </r>
        <r>  0.0171  0.0382  0.0134 </r>
        <r>  0.0007  0.0060  0.0321 </r>
        <r>  0.0007  0.0060  0.0321 </r>
       </set>
       <set comment="band 91">
        <r>  0.0002  0.0054  0.0327 </r>
        <r>  0.0002  0.0054  0.0327 </r>
        <r>  0.0174  0.0382  0.0127 </r>
        <r>  0.0174  0.0382  0.0127 </r>
        <r>  0.0129  0.0106  0.0118 </r>
        <r>  0.0129  0.0106  0.0118 </r>
        <r>  0.0232  0.0103  0.0208 </r>
        <r>  0.0232  0.0103  0.0208 </r>
        <r>  0.0320  0.0077  0.0246 </r>
        <r>  0.0320  0.0077  0.0246 </r>
        <r>  0.0045  0.0124  0.0075 </r>
        <r>  0.0045  0.0124  0.0075 </r>
        <r>  0.0007  0.0060  0.0321 </r>
        <r>  0.0007  0.0060  0.0321 </r>
        <r>  0.0171  0.0382  0.0134 </r>
        <r>  0.0171  0.0382  0.0134 </r>
       </set>
       <set comment="band 92">
        <r>  0.0071  0.0112  0.0139 </r>
        <r>  0.0071  0.0112  0.0139 </r>
        <r>  0.0071  0.0112  0.0139 </r>
        <r>  0.0071  0.0112  0.0139 </r>
        <r>  0.0177  0.0333  0.0347 </r>
        <r>  0.0177  0.0333  0.0347 </r>
        <r>  0.0177  0.0333  0.0347 </r>
        <r>  0.0177  0.0333  0.0347 </r>
        <r>  0.0181  0.0344  0.0354 </r>
        <r>  0.0181  0.0344  0.0354 </r>
        <r>  0.0181  0.0344  0.0354 </r>
        <r>  0.0181  0.0344  0.0354 </r>
        <r>  0.0077  0.0123  0.0151 </r>
        <r>  0.0077  0.0123  0.0151 </r>
        <r>  0.0077  0.0123  0.0151 </r>
        <r>  0.0077  0.0123  0.0151 </r>
       </set>
       <set comment="band 93">
        <r>  0.0085  0.0238  0.0169 </r>
        <r>  0.0085  0.0238  0.0169 </r>
        <r>  0.0085  0.0238  0.0169 </r>
        <r>  0.0085  0.0238  0.0169 </r>
        <r>  0.0167  0.0194  0.0134 </r>
        <r>  0.0167  0.0194  0.0134 </r>
        <r>  0.0168  0.0194  0.0134 </r>
        <r>  0.0168  0.0194  0.0134 </r>
        <r>  0.0169  0.0193  0.0133 </r>
        <r>  0.0169  0.0193  0.0133 </r>
        <r>  0.0169  0.0193  0.0133 </r>
        <r>  0.0169  0.0193  0.0133 </r>
        <r>  0.0086  0.0244  0.0171 </r>
        <r>  0.0086  0.0244  0.0171 </r>
        <r>  0.0086  0.0244  0.0171 </r>
        <r>  0.0086  0.0244  0.0171 </r>
       </set>
       <set comment="band 94">
        <r>  0.0130  0.0361  0.0257 </r>
        <r>  0.0130  0.0361  0.0257 </r>
        <r>  0.0130  0.0361  0.0257 </r>
        <r>  0.0130  0.0361  0.0257 </r>
        <r>  0.0040  0.0246  0.0150 </r>
        <r>  0.0040  0.0246  0.0150 </r>
        <r>  0.0040  0.0246  0.0150 </r>
        <r>  0.0040  0.0246  0.0150 </r>
        <r>  0.0037  0.0237  0.0144 </r>
        <r>  0.0037  0.0237  0.0144 </r>
        <r>  0.0037  0.0237  0.0144 </r>
        <r>  0.0037  0.0237  0.0144 </r>
        <r>  0.0124  0.0356  0.0251 </r>
        <r>  0.0124  0.0356  0.0251 </r>
        <r>  0.0124  0.0356  0.0251 </r>
        <r>  0.0124  0.0356  0.0251 </r>
       </set>
       <set comment="band 95">
        <r>  0.0000  0.0466  0.0085 </r>
        <r>  0.0000  0.0466  0.0085 </r>
        <r>  0.0000  0.0120  0.0162 </r>
        <r>  0.0000  0.0120  0.0162 </r>
        <r>  0.0000  0.0561  0.0030 </r>
        <r>  0.0000  0.0561  0.0030 </r>
        <r>  0.0001  0.0003  0.0240 </r>
        <r>  0.0001  0.0003  0.0240 </r>
        <r>  0.0000  0.0396  0.0096 </r>
        <r>  0.0000  0.0396  0.0096 </r>
        <r>  0.0001  0.0171  0.0177 </r>
        <r>  0.0001  0.0171  0.0177 </r>
        <r>  0.0001  0.0470  0.0052 </r>
        <r>  0.0001  0.0470  0.0052 </r>
        <r>  0.0000  0.0122  0.0200 </r>
        <r>  0.0000  0.0122  0.0200 </r>
       </set>
       <set comment="band 96">
        <r>  0.0000  0.0120  0.0162 </r>
        <r>  0.0000  0.0120  0.0162 </r>
        <r>  0.0000  0.0466  0.0085 </r>
        <r>  0.0000  0.0466  0.0085 </r>
        <r>  0.0001  0.0003  0.0240 </r>
        <r>  0.0001  0.0003  0.0240 </r>
        <r>  0.0000  0.0561  0.0030 </r>
        <r>  0.0000  0.0561  0.0030 </r>
        <r>  0.0001  0.0171  0.0177 </r>
        <r>  0.0001  0.0171  0.0177 </r>
        <r>  0.0000  0.0396  0.0096 </r>
        <r>  0.0000  0.0396  0.0096 </r>
        <r>  0.0000  0.0122  0.0200 </r>
        <r>  0.0000  0.0122  0.0200 </r>
        <r>  0.0001  0.0471  0.0052 </r>
        <r>  0.0001  0.0470  0.0052 </r>
       </set>
       <set comment="band 97">
        <r>  0.0014  0.0486  0.0192 </r>
        <r>  0.0014  0.0486  0.0192 </r>
        <r>  0.0014  0.0486  0.0192 </r>
        <r>  0.0014  0.0486  0.0192 </r>
        <r>  0.0003  0.0297  0.0136 </r>
        <r>  0.0003  0.0297  0.0136 </r>
        <r>  0.0003  0.0297  0.0136 </r>
        <r>  0.0003  0.0297  0.0136 </r>
        <r>  0.0004  0.0300  0.0137 </r>
        <r>  0.0004  0.0300  0.0137 </r>
        <r>  0.0004  0.0300  0.0137 </r>
        <r>  0.0004  0.0300  0.0137 </r>
        <r>  0.0011  0.0487  0.0192 </r>
        <r>  0.0011  0.0487  0.0192 </r>
        <r>  0.0011  0.0487  0.0192 </r>
        <r>  0.0011  0.0487  0.0192 </r>
       </set>
       <set comment="band 98">
        <r>  0.0003  0.0209  0.0143 </r>
        <r>  0.0003  0.0209  0.0143 </r>
        <r>  0.0003  0.0209  0.0143 </r>
        <r>  0.0003  0.0209  0.0143 </r>
        <r>  0.0256  0.0333  0.0203 </r>
        <r>  0.0256  0.0333  0.0203 </r>
        <r>  0.0256  0.0333  0.0203 </r>
        <r>  0.0256  0.0333  0.0203 </r>
        <r>  0.0262  0.0345  0.0211 </r>
        <r>  0.0262  0.0345  0.0211 </r>
        <r>  0.0262  0.0345  0.0211 </r>
        <r>  0.0262  0.0345  0.0211 </r>
        <r>  0.0003  0.0228  0.0158 </r>
        <r>  0.0003  0.0228  0.0158 </r>
        <r>  0.0003  0.0228  0.0158 </r>
        <r>  0.0003  0.0228  0.0158 </r>
       </set>
       <set comment="band 99">
        <r>  0.0169  0.0062  0.0074 </r>
        <r>  0.0169  0.0062  0.0074 </r>
        <r>  0.0169  0.0061  0.0074 </r>
        <r>  0.0169  0.0061  0.0074 </r>
        <r>  0.0074  0.0516  0.0292 </r>
        <r>  0.0074  0.0516  0.0292 </r>
        <r>  0.0074  0.0516  0.0292 </r>
        <r>  0.0074  0.0516  0.0292 </r>
        <r>  0.0077  0.0520  0.0293 </r>
        <r>  0.0077  0.0520  0.0293 </r>
        <r>  0.0077  0.0520  0.0293 </r>
        <r>  0.0077  0.0520  0.0293 </r>
        <r>  0.0178  0.0061  0.0074 </r>
        <r>  0.0178  0.0061  0.0074 </r>
        <r>  0.0178  0.0061  0.0074 </r>
        <r>  0.0178  0.0061  0.0074 </r>
       </set>
       <set comment="band 100">
        <r>  0.0000  0.0285  0.0123 </r>
        <r>  0.0000  0.0285  0.0123 </r>
        <r>  0.0000  0.0285  0.0123 </r>
        <r>  0.0000  0.0285  0.0123 </r>
        <r>  0.0000  0.0272  0.0135 </r>
        <r>  0.0000  0.0272  0.0136 </r>
        <r>  0.0000  0.0272  0.0136 </r>
        <r>  0.0000  0.0272  0.0136 </r>
        <r>  0.0000  0.0273  0.0136 </r>
        <r>  0.0000  0.0273  0.0136 </r>
        <r>  0.0000  0.0273  0.0136 </r>
        <r>  0.0000  0.0273  0.0136 </r>
        <r>  0.0000  0.0286  0.0124 </r>
        <r>  0.0000  0.0286  0.0124 </r>
        <r>  0.0000  0.0286  0.0124 </r>
        <r>  0.0000  0.0286  0.0124 </r>
       </set>
       <set comment="band 101">
        <r>  0.0194  0.0301  0.0100 </r>
        <r>  0.0194  0.0301  0.0100 </r>
        <r>  0.0194  0.0301  0.0100 </r>
        <r>  0.0194  0.0301  0.0100 </r>
        <r>  0.0010  0.0328  0.0258 </r>
        <r>  0.0010  0.0328  0.0258 </r>
        <r>  0.0010  0.0328  0.0258 </r>
        <r>  0.0010  0.0328  0.0258 </r>
        <r>  0.0007  0.0319  0.0252 </r>
        <r>  0.0007  0.0319  0.0252 </r>
        <r>  0.0007  0.0319  0.0252 </r>
        <r>  0.0007  0.0319  0.0252 </r>
        <r>  0.0196  0.0284  0.0094 </r>
        <r>  0.0196  0.0284  0.0094 </r>
        <r>  0.0196  0.0284  0.0094 </r>
        <r>  0.0196  0.0284  0.0094 </r>
       </set>
       <set comment="band 102">
        <r>  0.0007  0.0042  0.0011 </r>
        <r>  0.0007  0.0042  0.0011 </r>
        <r>  0.0073  0.0024  0.0076 </r>
        <r>  0.0073  0.0024  0.0076 </r>
        <r>  0.0006  0.0048  0.0006 </r>
        <r>  0.0006  0.0048  0.0006 </r>
        <r>  0.0093  0.0008  0.0086 </r>
        <r>  0.0093  0.0008  0.0086 </r>
        <r>  0.0045  0.0029  0.0043 </r>
        <r>  0.0045  0.0029  0.0043 </r>
        <r>  0.0051  0.0028  0.0048 </r>
        <r>  0.0051  0.0028  0.0048 </r>
        <r>  0.0007  0.0042  0.0010 </r>
        <r>  0.0007  0.0042  0.0010 </r>
        <r>  0.0070  0.0021  0.0076 </r>
        <r>  0.0070  0.0021  0.0076 </r>
       </set>
       <set comment="band 103">
        <r>  0.0073  0.0024  0.0076 </r>
        <r>  0.0073  0.0024  0.0076 </r>
        <r>  0.0007  0.0042  0.0011 </r>
        <r>  0.0007  0.0042  0.0011 </r>
        <r>  0.0093  0.0008  0.0086 </r>
        <r>  0.0093  0.0008  0.0086 </r>
        <r>  0.0006  0.0048  0.0006 </r>
        <r>  0.0006  0.0048  0.0006 </r>
        <r>  0.0051  0.0028  0.0048 </r>
        <r>  0.0051  0.0028  0.0048 </r>
        <r>  0.0045  0.0029  0.0043 </r>
        <r>  0.0045  0.0029  0.0043 </r>
        <r>  0.0070  0.0021  0.0076 </r>
        <r>  0.0070  0.0021  0.0076 </r>
        <r>  0.0007  0.0042  0.0010 </r>
        <r>  0.0007  0.0042  0.0010 </r>
       </set>
       <set comment="band 104">
        <r>  0.0064  0.0454  0.0274 </r>
        <r>  0.0064  0.0454  0.0274 </r>
        <r>  0.0064  0.0454  0.0274 </r>
        <r>  0.0064  0.0454  0.0274 </r>
        <r>  0.0221  0.0024  0.0095 </r>
        <r>  0.0221  0.0024  0.0095 </r>
        <r>  0.0221  0.0024  0.0095 </r>
        <r>  0.0221  0.0024  0.0095 </r>
        <r>  0.0208  0.0020  0.0094 </r>
        <r>  0.0208  0.0020  0.0094 </r>
        <r>  0.0208  0.0020  0.0094 </r>
        <r>  0.0208  0.0020  0.0094 </r>
        <r>  0.0051  0.0443  0.0264 </r>
        <r>  0.0051  0.0443  0.0264 </r>
        <r>  0.0051  0.0443  0.0264 </r>
        <r>  0.0051  0.0443  0.0264 </r>
       </set>
       <set comment="band 105">
        <r>  0.0016  0.0043  0.0018 </r>
        <r>  0.0016  0.0043  0.0018 </r>
        <r>  0.0001  0.0011  0.0010 </r>
        <r>  0.0001  0.0011  0.0010 </r>
        <r>  0.0002  0.0057  0.0004 </r>
        <r>  0.0002  0.0057  0.0004 </r>
        <r>  0.0000  0.0006  0.0013 </r>
        <r>  0.0000  0.0006  0.0014 </r>
        <r>  0.0000  0.0028  0.0010 </r>
        <r>  0.0000  0.0028  0.0010 </r>
        <r>  0.0002  0.0034  0.0008 </r>
        <r>  0.0002  0.0034  0.0008 </r>
        <r>  0.0016  0.0047  0.0016 </r>
        <r>  0.0016  0.0047  0.0016 </r>
        <r>  0.0001  0.0010  0.0011 </r>
        <r>  0.0001  0.0010  0.0011 </r>
       </set>
       <set comment="band 106">
        <r>  0.0001  0.0011  0.0010 </r>
        <r>  0.0001  0.0011  0.0010 </r>
        <r>  0.0016  0.0043  0.0018 </r>
        <r>  0.0016  0.0043  0.0018 </r>
        <r>  0.0000  0.0006  0.0014 </r>
        <r>  0.0000  0.0006  0.0013 </r>
        <r>  0.0002  0.0057  0.0004 </r>
        <r>  0.0002  0.0057  0.0004 </r>
        <r>  0.0002  0.0034  0.0008 </r>
        <r>  0.0002  0.0034  0.0008 </r>
        <r>  0.0000  0.0028  0.0010 </r>
        <r>  0.0000  0.0028  0.0010 </r>
        <r>  0.0001  0.0010  0.0011 </r>
        <r>  0.0001  0.0010  0.0011 </r>
        <r>  0.0016  0.0047  0.0016 </r>
        <r>  0.0016  0.0047  0.0016 </r>
       </set>
       <set comment="band 107">
        <r>  0.0212  0.0272  0.0182 </r>
        <r>  0.0212  0.0272  0.0182 </r>
        <r>  0.0212  0.0272  0.0182 </r>
        <r>  0.0212  0.0272  0.0182 </r>
        <r>  0.0024  0.0243  0.0071 </r>
        <r>  0.0024  0.0243  0.0071 </r>
        <r>  0.0024  0.0243  0.0071 </r>
        <r>  0.0024  0.0243  0.0071 </r>
        <r>  0.0029  0.0238  0.0075 </r>
        <r>  0.0029  0.0238  0.0076 </r>
        <r>  0.0029  0.0238  0.0075 </r>
        <r>  0.0029  0.0238  0.0075 </r>
        <r>  0.0220  0.0286  0.0190 </r>
        <r>  0.0220  0.0286  0.0190 </r>
        <r>  0.0220  0.0286  0.0190 </r>
        <r>  0.0220  0.0286  0.0190 </r>
       </set>
       <set comment="band 108">
        <r>  0.0003  0.0012  0.0011 </r>
        <r>  0.0000  0.0017  0.0004 </r>
        <r>  0.0011  0.0031  0.0013 </r>
        <r>  0.0021  0.0015  0.0031 </r>
        <r>  0.0001  0.0018  0.0008 </r>
        <r>  0.0003  0.0017  0.0013 </r>
        <r>  0.0001  0.0035  0.0006 </r>
        <r>  0.0005  0.0030  0.0009 </r>
        <r>  0.0000  0.0043  0.0003 </r>
        <r>  0.0003  0.0035  0.0008 </r>
        <r>  0.0002  0.0011  0.0014 </r>
        <r>  0.0000  0.0014  0.0008 </r>
        <r>  0.0000  0.0015  0.0007 </r>
        <r>  0.0003  0.0011  0.0009 </r>
        <r>  0.0017  0.0021  0.0026 </r>
        <r>  0.0008  0.0037  0.0010 </r>
       </set>
      </set>
     </set>
    </set>
   </array>
  </projected>
 </calculation>
 <structure name="finalpos" >
  <crystal>
   <varray name="basis" >
    <v>       5.19996363       0.00000000       0.00000000 </v>
    <v>       2.59998182       4.50330060       0.00000000 </v>
    <v>       0.00000000       0.00000000      26.36862879 </v>
   </varray>
   <i name="volume">    617.47416323 </i>
   <varray name="rec_basis" >
    <v>       0.19230904      -0.11102967       0.00000000 </v>
    <v>       0.00000000       0.22205935       0.00000000 </v>
    <v>       0.00000000       0.00000000       0.03792385 </v>
   </varray>
  </crystal>
  <varray name="positions" >
   <v>       0.00000000       0.00000000       0.37923853 </v>
   <v>       0.50000000       0.00000000       0.37923853 </v>
   <v>       0.00000000       0.50000000       0.37923853 </v>
   <v>       0.50000000       0.50000000       0.37923853 </v>
   <v>       0.16666667       0.16666667       0.45974618 </v>
   <v>       0.66666667       0.16666667       0.45974618 </v>
   <v>       0.16666667       0.66666667       0.45974618 </v>
   <v>       0.66666667       0.66666667       0.45974618 </v>
   <v>       0.83333593       0.33331957       0.53871077 </v>
   <v>       0.33333543       0.33332721       0.53870982 </v>
   <v>       0.83333242       0.83334122       0.53871090 </v>
   <v>       0.33332267       0.83333900       0.53870958 </v>
   <v>       0.99999564       0.00000402       0.61779825 </v>
   <v>       0.50000444       0.00000441       0.61779738 </v>
   <v>       0.99999949       0.50000430       0.61780048 </v>
   <v>       0.50000384       0.49999738       0.61779789 </v>
  </varray>
  <varray name="selective"  type="logical" >
   <v type="logical" >  F  F  F </v>
   <v type="logical" >  F  F  F </v>
   <v type="logical" >  F  F  F </v>
   <v type="logical" >  F  F  F </v>
   <v type="logical" >  F  F  F </v>
   <v type="logical" >  F  F  F </v>
   <v type="logical" >  F  F  F </v>
   <v type="logical" >  F  F  F </v>
   <v type="logical" >  T  T  T </v>
   <v type="logical" >  T  T  T </v>
   <v type="logical" >  T  T  T </v>
   <v type="logical" >  T  T  T </v>
   <v type="logical" >  T  T  T </v>
   <v type="logical" >  T  T  T </v>
   <v type="logical" >  T  T  T </v>
   <v type="logical" >  T  T  T </v>
  </varray>
  <nose>
   <v>      -3.00000000       0.00000000       0.00010000       0.00010000 </v>
  </nose>
 </structure>
</modeling>
