unknown system                          
           1
     5.199964    0.000000    0.000000
     2.599982    4.503301    0.000000
     0.000000    0.000000   26.368629
   Cu
  16
Direct configuration=     1
   0.00000000  0.00000000  0.37923853
   0.50000000  0.00000000  0.37923853
   0.00000000  0.50000000  0.37923853
   0.50000000  0.50000000  0.37923853
   0.16666667  0.16666667  0.45974618
   0.66666667  0.16666667  0.45974618
   0.16666667  0.66666667  0.45974618
   0.66666667  0.66666667  0.45974618
   0.83333593  0.33331957  0.53871077
   0.33333543  0.33332721  0.53870982
   0.83333242  0.83334122  0.53871090
   0.33332267  0.83333900  0.53870958
   0.99999564  0.00000402  0.61779825
   0.50000444  0.00000441  0.61779738
   0.99999949  0.50000430  0.61780048
   0.50000384  0.49999738  0.61779789
