   18   18    1    1
  0.3430412E+02  0.5199964E-09  0.5199964E-09  0.2636863E-08  0.5000000E-15
  1.000000000000000E-004
  CAR 
 unknown system                          
    186     13    112
 
  0.0000000E+00  0.0000000E+00  0.0000000E+00  0.4000000E-01
    1      -24.249724   1.000000
    2      -11.108041   1.000000
    3       -9.234096   1.000000
    4       -8.324745   1.000000
    5       -7.477595   1.000000
    6       -7.396018   1.000000
    7       -7.395413   1.000000
    8       -6.123453   1.000000
    9       -5.528593   1.000000
   10       -5.326616   1.000000
   11       -5.311350   1.000000
   12       -5.311338   1.000000
   13       -5.180371   1.000000
   14       -5.180353   1.000000
   15       -5.148436   1.000000
   16       -4.930852   1.000000
   17       -4.930826   1.000000
   18       -4.814012   1.000000
   19       -4.793989   1.000000
   20       -4.784503   1.000000
   21       -4.784425   1.000000
   22       -4.752724   1.000000
   23       -4.752679   1.000000
   24       -4.680232   1.000000
   25       -4.436179   1.000000
   26       -4.436140   1.000000
   27       -4.367819   1.000000
   28       -3.949095   1.000000
   29       -3.949089   1.000000
   30       -3.868151   1.000000
   31       -3.754660   1.000000
   32       -3.700801   1.000000
   33       -3.700674   1.000000
   34       -3.673663   1.000000
   35       -3.673603   1.000000
   36       -3.650603   1.000000
   37       -3.590894   1.000000
   38       -3.549411   1.000000
   39       -3.549308   1.000000
   40       -3.533669   1.000000
   41       -3.524362   1.000000
   42       -3.524262   1.000000
   43       -3.487698   1.000000
   44       -3.487634   1.000000
   45       -3.459251   1.000000
   46       -3.459186   1.000000
   47       -3.326660   1.000000
   48       -3.326514   1.000000
   49       -3.319408   1.000000
   50       -3.312476   1.000000
   51       -3.244712   1.000000
   52       -3.244699   1.000000
   53       -3.219634   1.000000
   54       -3.116067   1.000000
   55       -3.116057   1.000000
   56       -2.993625   1.000000
   57       -2.931532   1.000000
   58       -2.931515   1.000000
   59       -2.801245   1.000000
   60       -2.801178   1.000000
   61       -2.748131   1.000000
   62       -2.677473   1.000000
   63       -2.677464   1.000000
   64       -2.652431   1.000000
   65       -2.652399   1.000000
   66       -2.531876   1.000000
   67       -2.530440   1.000000
   68       -2.530416   1.000000
   69       -2.489234   1.000000
   70       -2.425134   1.000000
   71       -2.425079   1.000000
   72       -2.395805   1.000000
   73       -2.374225   1.000000
   74       -2.374192   1.000000
   75       -2.342159   1.000000
   76       -2.338751   1.000000
   77       -2.338702   1.000000
   78       -2.302475   1.000000
   79       -2.302418   1.000000
   80       -2.294270   1.000000
   81       -2.279705   1.000000
   82       -2.279650   1.000000
   83       -2.205691   1.000000
   84       -2.180301   1.000000
   85       -2.180247   1.000000
   86       -2.121807   1.000000
   87       -2.111672   1.000000
   88       -2.111590   1.000000
   89       -1.536819   1.000000
   90       -0.995629   1.034976
   91       -0.995595   1.034973
   92       -0.944045   1.013566
   93       -0.358921  -0.007671
   94       -0.216956  -0.000405
   95       -0.216825  -0.000403
   96        0.252558  -0.000000
   97        0.317156  -0.000000
   98        0.317203  -0.000000
   99        0.705114  -0.000000
  100        0.742668  -0.000000
  101        0.742670  -0.000000
  102        1.115505  -0.000000
  103        1.115608  -0.000000
  104        2.820204  -0.000000
  105        3.306851  -0.000000
  106        3.408364  -0.000000
  107        3.467303  -0.000000
  108        3.467396  -0.000000
  109        3.716122  -0.000000
  110        4.261312  -0.000000
  111        4.449477  -0.000000
  112        4.606671  -0.000000
 
  0.2000000E+00 -0.1387779E-16  0.0000000E+00  0.8000000E-01
    1      -24.250374   1.000000
    2      -11.058153   1.000000
    3       -8.955859   1.000000
    4       -8.184220   1.000000
    5       -7.472035   1.000000
    6       -7.401287   1.000000
    7       -7.272823   1.000000
    8       -5.922941   1.000000
    9       -5.636811   1.000000
   10       -5.359550   1.000000
   11       -5.277823   1.000000
   12       -5.250426   1.000000
   13       -5.244199   1.000000
   14       -5.095421   1.000000
   15       -5.080866   1.000000
   16       -4.940217   1.000000
   17       -4.836423   1.000000
   18       -4.761820   1.000000
   19       -4.716187   1.000000
   20       -4.699034   1.000000
   21       -4.691376   1.000000
   22       -4.647110   1.000000
   23       -4.626128   1.000000
   24       -4.571822   1.000000
   25       -4.369370   1.000000
   26       -4.365437   1.000000
   27       -4.330795   1.000000
   28       -3.966393   1.000000
   29       -3.965929   1.000000
   30       -3.899015   1.000000
   31       -3.847305   1.000000
   32       -3.793262   1.000000
   33       -3.700175   1.000000
   34       -3.696355   1.000000
   35       -3.645875   1.000000
   36       -3.629101   1.000000
   37       -3.619652   1.000000
   38       -3.593993   1.000000
   39       -3.590569   1.000000
   40       -3.578676   1.000000
   41       -3.554051   1.000000
   42       -3.526895   1.000000
   43       -3.512887   1.000000
   44       -3.481617   1.000000
   45       -3.450799   1.000000
   46       -3.438661   1.000000
   47       -3.428264   1.000000
   48       -3.424321   1.000000
   49       -3.398060   1.000000
   50       -3.357129   1.000000
   51       -3.328056   1.000000
   52       -3.241205   1.000000
   53       -3.229812   1.000000
   54       -3.192017   1.000000
   55       -3.118139   1.000000
   56       -3.082055   1.000000
   57       -2.979838   1.000000
   58       -2.975290   1.000000
   59       -2.947080   1.000000
   60       -2.881552   1.000000
   61       -2.824353   1.000000
   62       -2.807725   1.000000
   63       -2.790654   1.000000
   64       -2.768524   1.000000
   65       -2.716381   1.000000
   66       -2.702882   1.000000
   67       -2.667937   1.000000
   68       -2.660226   1.000000
   69       -2.600317   1.000000
   70       -2.568716   1.000000
   71       -2.530572   1.000000
   72       -2.505710   1.000000
   73       -2.483487   1.000000
   74       -2.449390   1.000000
   75       -2.449325   1.000000
   76       -2.428944   1.000000
   77       -2.419821   1.000000
   78       -2.393456   1.000000
   79       -2.382679   1.000000
   80       -2.359859   1.000000
   81       -2.343862   1.000000
   82       -2.313347   1.000000
   83       -2.308815   1.000000
   84       -2.279070   1.000000
   85       -2.276898   1.000000
   86       -2.240703   1.000000
   87       -2.218466   1.000000
   88       -2.205373   1.000000
   89       -2.024389   1.000000
   90       -1.692914   1.000000
   91       -1.109572   1.016818
   92       -1.000227   1.035304
   93       -0.809299   0.696114
   94       -0.502465  -0.034767
   95       -0.465049  -0.028442
   96       -0.281473  -0.001789
   97        0.389413  -0.000000
   98        0.485351  -0.000000
   99        1.088109  -0.000000
  100        1.431388  -0.000000
  101        1.610718  -0.000000
  102        1.972990  -0.000000
  103        2.116438  -0.000000
  104        3.294544  -0.000000
  105        3.631146  -0.000000
  106        3.765814  -0.000000
  107        3.771105  -0.000000
  108        4.018969  -0.000000
  109        4.132628  -0.000000
  110        4.645883  -0.000000
  111        4.747433   0.000000
  112        4.957357   0.000000
 
  0.4000000E+00 -0.2775558E-16  0.0000000E+00  0.8000000E-01
    1      -24.250359   1.000000
    2      -10.978921   1.000000
    3       -8.230506   1.000000
    4       -7.855655   1.000000
    5       -7.556483   1.000000
    6       -7.409260   1.000000
    7       -6.776997   1.000000
    8       -6.666360   1.000000
    9       -5.832723   1.000000
   10       -5.363350   1.000000
   11       -5.121635   1.000000
   12       -5.107997   1.000000
   13       -4.964898   1.000000
   14       -4.915432   1.000000
   15       -4.882733   1.000000
   16       -4.855147   1.000000
   17       -4.665871   1.000000
   18       -4.654321   1.000000
   19       -4.601016   1.000000
   20       -4.491749   1.000000
   21       -4.471426   1.000000
   22       -4.442441   1.000000
   23       -4.341420   1.000000
   24       -4.334601   1.000000
   25       -4.230949   1.000000
   26       -4.195479   1.000000
   27       -4.183401   1.000000
   28       -4.117302   1.000000
   29       -4.067872   1.000000
   30       -4.061893   1.000000
   31       -3.952099   1.000000
   32       -3.920056   1.000000
   33       -3.885149   1.000000
   34       -3.856604   1.000000
   35       -3.847349   1.000000
   36       -3.822548   1.000000
   37       -3.801406   1.000000
   38       -3.764640   1.000000
   39       -3.735425   1.000000
   40       -3.652425   1.000000
   41       -3.636239   1.000000
   42       -3.592552   1.000000
   43       -3.572631   1.000000
   44       -3.546313   1.000000
   45       -3.487123   1.000000
   46       -3.447604   1.000000
   47       -3.425718   1.000000
   48       -3.375914   1.000000
   49       -3.372379   1.000000
   50       -3.363654   1.000000
   51       -3.360621   1.000000
   52       -3.312728   1.000000
   53       -3.302904   1.000000
   54       -3.279117   1.000000
   55       -3.261571   1.000000
   56       -3.235956   1.000000
   57       -3.173086   1.000000
   58       -3.172128   1.000000
   59       -3.158049   1.000000
   60       -3.121040   1.000000
   61       -3.082185   1.000000
   62       -3.045302   1.000000
   63       -3.017096   1.000000
   64       -2.935692   1.000000
   65       -2.919111   1.000000
   66       -2.882175   1.000000
   67       -2.854893   1.000000
   68       -2.838110   1.000000
   69       -2.817963   1.000000
   70       -2.776463   1.000000
   71       -2.765778   1.000000
   72       -2.722121   1.000000
   73       -2.714584   1.000000
   74       -2.699730   1.000000
   75       -2.675871   1.000000
   76       -2.622609   1.000000
   77       -2.612168   1.000000
   78       -2.576628   1.000000
   79       -2.538311   1.000000
   80       -2.510457   1.000000
   81       -2.482099   1.000000
   82       -2.446543   1.000000
   83       -2.348815   1.000000
   84       -2.323634   1.000000
   85       -2.320840   1.000000
   86       -2.281859   1.000000
   87       -2.276791   1.000000
   88       -2.244337   1.000000
   89       -2.200304   1.000000
   90       -1.817539   1.000000
   91       -1.293057   1.000556
   92       -1.010355   1.035400
   93       -0.869352   0.890977
   94       -0.575473  -0.016251
   95       -0.483657  -0.032165
   96        0.025724  -0.000000
   97        0.463004  -0.000000
   98        0.577509  -0.000000
   99        1.024831  -0.000000
  100        1.890700  -0.000000
  101        1.972344  -0.000000
  102        2.554724  -0.000000
  103        3.300495  -0.000000
  104        3.651926  -0.000000
  105        4.340221  -0.000000
  106        4.608415  -0.000000
  107        4.800604   0.000000
  108        4.904289   0.000000
  109        5.055078   0.000000
  110        5.578836   0.000000
  111        5.641681   0.000000
  112        5.785418   0.000000
 
  0.0000000E+00  0.2000000E+00  0.0000000E+00  0.8000000E-01
    1      -24.250374   1.000000
    2      -11.058153   1.000000
    3       -8.955859   1.000000
    4       -8.184220   1.000000
    5       -7.472034   1.000000
    6       -7.401288   1.000000
    7       -7.272823   1.000000
    8       -5.922940   1.000000
    9       -5.636811   1.000000
   10       -5.359548   1.000000
   11       -5.277825   1.000000
   12       -5.250425   1.000000
   13       -5.244201   1.000000
   14       -5.095431   1.000000
   15       -5.080853   1.000000
   16       -4.940225   1.000000
   17       -4.836415   1.000000
   18       -4.761818   1.000000
   19       -4.716188   1.000000
   20       -4.699027   1.000000
   21       -4.691382   1.000000
   22       -4.647108   1.000000
   23       -4.626133   1.000000
   24       -4.571821   1.000000
   25       -4.369367   1.000000
   26       -4.365440   1.000000
   27       -4.330793   1.000000
   28       -3.966391   1.000000
   29       -3.965928   1.000000
   30       -3.899019   1.000000
   31       -3.847303   1.000000
   32       -3.793260   1.000000
   33       -3.700185   1.000000
   34       -3.696350   1.000000
   35       -3.645876   1.000000
   36       -3.629095   1.000000
   37       -3.619655   1.000000
   38       -3.593989   1.000000
   39       -3.590576   1.000000
   40       -3.578678   1.000000
   41       -3.554060   1.000000
   42       -3.526892   1.000000
   43       -3.512877   1.000000
   44       -3.481621   1.000000
   45       -3.450792   1.000000
   46       -3.438658   1.000000
   47       -3.428264   1.000000
   48       -3.424322   1.000000
   49       -3.398061   1.000000
   50       -3.357134   1.000000
   51       -3.328058   1.000000
   52       -3.241204   1.000000
   53       -3.229811   1.000000
   54       -3.192030   1.000000
   55       -3.118129   1.000000
   56       -3.082048   1.000000
   57       -2.979827   1.000000
   58       -2.975308   1.000000
   59       -2.947073   1.000000
   60       -2.881549   1.000000
   61       -2.824356   1.000000
   62       -2.807721   1.000000
   63       -2.790662   1.000000
   64       -2.768529   1.000000
   65       -2.716377   1.000000
   66       -2.702884   1.000000
   67       -2.667933   1.000000
   68       -2.660237   1.000000
   69       -2.600318   1.000000
   70       -2.568712   1.000000
   71       -2.530566   1.000000
   72       -2.505703   1.000000
   73       -2.483481   1.000000
   74       -2.449395   1.000000
   75       -2.449320   1.000000
   76       -2.428941   1.000000
   77       -2.419833   1.000000
   78       -2.393457   1.000000
   79       -2.382683   1.000000
   80       -2.359854   1.000000
   81       -2.343864   1.000000
   82       -2.313339   1.000000
   83       -2.308823   1.000000
   84       -2.279079   1.000000
   85       -2.276890   1.000000
   86       -2.240675   1.000000
   87       -2.218461   1.000000
   88       -2.205405   1.000000
   89       -2.024388   1.000000
   90       -1.692916   1.000000
   91       -1.109573   1.016818
   92       -1.000218   1.035303
   93       -0.809308   0.696150
   94       -0.502461  -0.034767
   95       -0.465049  -0.028442
   96       -0.281476  -0.001789
   97        0.389413  -0.000000
   98        0.485349  -0.000000
   99        1.088111  -0.000000
  100        1.431389  -0.000000
  101        1.610719  -0.000000
  102        1.972991  -0.000000
  103        2.116439  -0.000000
  104        3.294544  -0.000000
  105        3.631144  -0.000000
  106        3.765811  -0.000000
  107        3.771103  -0.000000
  108        4.018968  -0.000000
  109        4.132627  -0.000000
  110        4.645882  -0.000000
  111        4.747421   0.000000
  112        4.957611   0.000000
 
  0.2000000E+00  0.2000000E+00  0.0000000E+00  0.8000000E-01
    1      -24.250360   1.000000
    2      -11.058153   1.000000
    3       -8.955862   1.000000
    4       -8.184224   1.000000
    5       -7.472523   1.000000
    6       -7.400879   1.000000
    7       -7.272948   1.000000
    8       -5.922945   1.000000
    9       -5.636852   1.000000
   10       -5.359544   1.000000
   11       -5.277827   1.000000
   12       -5.250410   1.000000
   13       -5.244178   1.000000
   14       -5.095429   1.000000
   15       -5.080864   1.000000
   16       -4.940221   1.000000
   17       -4.836407   1.000000
   18       -4.761830   1.000000
   19       -4.716129   1.000000
   20       -4.699019   1.000000
   21       -4.691455   1.000000
   22       -4.647060   1.000000
   23       -4.626151   1.000000
   24       -4.571835   1.000000
   25       -4.369365   1.000000
   26       -4.365478   1.000000
   27       -4.330768   1.000000
   28       -3.966416   1.000000
   29       -3.965926   1.000000
   30       -3.898985   1.000000
   31       -3.847286   1.000000
   32       -3.793214   1.000000
   33       -3.700229   1.000000
   34       -3.696269   1.000000
   35       -3.645855   1.000000
   36       -3.629062   1.000000
   37       -3.619702   1.000000
   38       -3.594007   1.000000
   39       -3.590525   1.000000
   40       -3.578637   1.000000
   41       -3.554039   1.000000
   42       -3.526869   1.000000
   43       -3.512893   1.000000
   44       -3.481693   1.000000
   45       -3.450734   1.000000
   46       -3.438726   1.000000
   47       -3.428237   1.000000
   48       -3.424413   1.000000
   49       -3.398096   1.000000
   50       -3.357064   1.000000
   51       -3.328010   1.000000
   52       -3.241303   1.000000
   53       -3.229835   1.000000
   54       -3.192072   1.000000
   55       -3.118125   1.000000
   56       -3.082041   1.000000
   57       -2.979819   1.000000
   58       -2.975293   1.000000
   59       -2.947094   1.000000
   60       -2.881518   1.000000
   61       -2.824390   1.000000
   62       -2.807738   1.000000
   63       -2.790646   1.000000
   64       -2.768520   1.000000
   65       -2.716382   1.000000
   66       -2.702861   1.000000
   67       -2.667943   1.000000
   68       -2.660213   1.000000
   69       -2.600298   1.000000
   70       -2.568758   1.000000
   71       -2.530603   1.000000
   72       -2.505720   1.000000
   73       -2.483485   1.000000
   74       -2.449394   1.000000
   75       -2.449333   1.000000
   76       -2.429013   1.000000
   77       -2.419831   1.000000
   78       -2.393517   1.000000
   79       -2.382709   1.000000
   80       -2.359892   1.000000
   81       -2.343875   1.000000
   82       -2.313352   1.000000
   83       -2.308766   1.000000
   84       -2.279037   1.000000
   85       -2.276954   1.000000
   86       -2.240559   1.000000
   87       -2.218550   1.000000
   88       -2.205291   1.000000
   89       -2.024376   1.000000
   90       -1.692932   1.000000
   91       -1.109528   1.016827
   92       -1.000143   1.035300
   93       -0.809288   0.696074
   94       -0.502391  -0.034761
   95       -0.465113  -0.028456
   96       -0.281400  -0.001787
   97        0.389519  -0.000000
   98        0.485516  -0.000000
   99        1.087987  -0.000000
  100        1.431522  -0.000000
  101        1.610669  -0.000000
  102        1.972928  -0.000000
  103        2.116110  -0.000000
  104        3.294562  -0.000000
  105        3.631431  -0.000000
  106        3.765620  -0.000000
  107        3.771032  -0.000000
  108        4.018880  -0.000000
  109        4.132903  -0.000000
  110        4.645890  -0.000000
  111        4.747425   0.000000
  112        4.957728   0.000000
 
  0.4000000E+00  0.2000000E+00  0.0000000E+00  0.8000000E-01
    1      -24.250149   1.000000
    2      -10.994369   1.000000
    3       -8.438078   1.000000
    4       -7.957714   1.000000
    5       -7.516615   1.000000
    6       -7.426468   1.000000
    7       -6.892026   1.000000
    8       -5.961235   1.000000
    9       -5.955049   1.000000
   10       -5.547951   1.000000
   11       -5.374216   1.000000
   12       -5.313899   1.000000
   13       -5.010380   1.000000
   14       -4.869997   1.000000
   15       -4.865972   1.000000
   16       -4.827902   1.000000
   17       -4.785531   1.000000
   18       -4.575986   1.000000
   19       -4.568306   1.000000
   20       -4.561893   1.000000
   21       -4.503327   1.000000
   22       -4.475069   1.000000
   23       -4.439239   1.000000
   24       -4.428270   1.000000
   25       -4.244503   1.000000
   26       -4.242793   1.000000
   27       -4.221427   1.000000
   28       -4.105453   1.000000
   29       -4.027971   1.000000
   30       -3.981892   1.000000
   31       -3.955046   1.000000
   32       -3.926076   1.000000
   33       -3.838805   1.000000
   34       -3.815683   1.000000
   35       -3.805009   1.000000
   36       -3.780232   1.000000
   37       -3.755687   1.000000
   38       -3.722725   1.000000
   39       -3.646932   1.000000
   40       -3.625561   1.000000
   41       -3.598588   1.000000
   42       -3.565898   1.000000
   43       -3.554040   1.000000
   44       -3.538024   1.000000
   45       -3.502271   1.000000
   46       -3.463718   1.000000
   47       -3.418152   1.000000
   48       -3.409386   1.000000
   49       -3.382546   1.000000
   50       -3.353595   1.000000
   51       -3.345530   1.000000
   52       -3.325324   1.000000
   53       -3.288132   1.000000
   54       -3.251334   1.000000
   55       -3.224632   1.000000
   56       -3.174461   1.000000
   57       -3.166908   1.000000
   58       -3.117283   1.000000
   59       -3.090898   1.000000
   60       -3.054192   1.000000
   61       -3.034892   1.000000
   62       -3.015327   1.000000
   63       -2.991708   1.000000
   64       -2.947150   1.000000
   65       -2.921615   1.000000
   66       -2.836477   1.000000
   67       -2.828525   1.000000
   68       -2.783076   1.000000
   69       -2.773207   1.000000
   70       -2.744361   1.000000
   71       -2.691386   1.000000
   72       -2.667822   1.000000
   73       -2.646958   1.000000
   74       -2.635005   1.000000
   75       -2.606945   1.000000
   76       -2.551486   1.000000
   77       -2.495635   1.000000
   78       -2.471025   1.000000
   79       -2.452928   1.000000
   80       -2.413866   1.000000
   81       -2.401076   1.000000
   82       -2.389079   1.000000
   83       -2.360412   1.000000
   84       -2.338167   1.000000
   85       -2.324866   1.000000
   86       -2.295798   1.000000
   87       -2.255864   1.000000
   88       -2.117410   1.000000
   89       -2.089163   1.000000
   90       -1.988395   1.000000
   91       -1.902050   1.000000
   92       -1.504656   1.000001
   93       -0.934745   1.005137
   94       -0.781204   0.583062
   95        0.110167  -0.000000
   96        0.560438  -0.000000
   97        0.745678  -0.000000
   98        0.904122  -0.000000
   99        1.219859  -0.000000
  100        1.520723  -0.000000
  101        2.005910  -0.000000
  102        2.251972  -0.000000
  103        2.624019  -0.000000
  104        3.421200  -0.000000
  105        3.952650  -0.000000
  106        4.177707  -0.000000
  107        4.387351  -0.000000
  108        4.622548  -0.000000
  109        5.223942   0.000000
  110        5.299283   0.000000
  111        5.370204   0.000000
  112        5.570267   0.000000
 
 -0.4000000E+00  0.2000000E+00  0.0000000E+00  0.8000000E-01
    1      -24.250353   1.000000
    2      -10.956210   1.000000
    3       -8.007700   1.000000
    4       -7.621020   1.000000
    5       -7.458073   1.000000
    6       -7.189206   1.000000
    7       -7.158293   1.000000
    8       -6.194060   1.000000
    9       -6.105679   1.000000
   10       -6.005901   1.000000
   11       -5.349473   1.000000
   12       -5.030036   1.000000
   13       -4.925478   1.000000
   14       -4.720371   1.000000
   15       -4.641298   1.000000
   16       -4.583524   1.000000
   17       -4.566722   1.000000
   18       -4.556393   1.000000
   19       -4.498610   1.000000
   20       -4.391582   1.000000
   21       -4.357757   1.000000
   22       -4.303809   1.000000
   23       -4.280364   1.000000
   24       -4.274141   1.000000
   25       -4.237623   1.000000
   26       -4.230865   1.000000
   27       -4.182022   1.000000
   28       -4.125462   1.000000
   29       -4.092450   1.000000
   30       -4.059420   1.000000
   31       -4.049782   1.000000
   32       -4.035845   1.000000
   33       -4.004660   1.000000
   34       -3.969845   1.000000
   35       -3.930749   1.000000
   36       -3.871593   1.000000
   37       -3.853272   1.000000
   38       -3.835638   1.000000
   39       -3.779865   1.000000
   40       -3.766230   1.000000
   41       -3.721490   1.000000
   42       -3.681860   1.000000
   43       -3.649402   1.000000
   44       -3.637508   1.000000
   45       -3.607774   1.000000
   46       -3.590252   1.000000
   47       -3.541757   1.000000
   48       -3.501783   1.000000
   49       -3.482983   1.000000
   50       -3.389812   1.000000
   51       -3.383633   1.000000
   52       -3.368346   1.000000
   53       -3.343045   1.000000
   54       -3.325750   1.000000
   55       -3.276155   1.000000
   56       -3.245549   1.000000
   57       -3.179512   1.000000
   58       -3.171081   1.000000
   59       -3.139177   1.000000
   60       -3.079786   1.000000
   61       -3.052763   1.000000
   62       -3.025825   1.000000
   63       -2.983717   1.000000
   64       -2.946202   1.000000
   65       -2.928248   1.000000
   66       -2.873930   1.000000
   67       -2.866327   1.000000
   68       -2.857919   1.000000
   69       -2.801666   1.000000
   70       -2.798259   1.000000
   71       -2.770261   1.000000
   72       -2.734133   1.000000
   73       -2.697594   1.000000
   74       -2.664256   1.000000
   75       -2.624321   1.000000
   76       -2.615731   1.000000
   77       -2.583565   1.000000
   78       -2.554247   1.000000
   79       -2.517833   1.000000
   80       -2.513192   1.000000
   81       -2.487477   1.000000
   82       -2.448488   1.000000
   83       -2.409499   1.000000
   84       -2.400526   1.000000
   85       -2.375248   1.000000
   86       -2.349875   1.000000
   87       -2.335196   1.000000
   88       -2.289789   1.000000
   89       -2.153785   1.000000
   90       -1.986083   1.000000
   91       -1.828579   1.000000
   92       -1.752334   1.000000
   93       -1.105216   1.017738
   94       -0.578991  -0.013483
   95       -0.142557  -0.000055
   96        0.632417  -0.000000
   97        0.909986  -0.000000
   98        1.270424  -0.000000
   99        1.540302  -0.000000
  100        1.970260  -0.000000
  101        2.419035  -0.000000
  102        2.958420  -0.000000
  103        3.025170  -0.000000
  104        3.786743  -0.000000
  105        3.914112  -0.000000
  106        4.101640  -0.000000
  107        4.745797   0.000000
  108        4.992576   0.000000
  109        5.191029   0.000000
  110        5.326883   0.000000
  111        5.772875   0.000000
  112        5.795868   0.000000
 
 -0.2000000E+00  0.2000000E+00  0.0000000E+00  0.8000000E-01
    1      -24.250156   1.000000
    2      -10.994368   1.000000
    3       -8.438065   1.000000
    4       -7.957717   1.000000
    5       -7.515957   1.000000
    6       -7.427062   1.000000
    7       -6.891956   1.000000
    8       -5.961230   1.000000
    9       -5.955049   1.000000
   10       -5.547943   1.000000
   11       -5.374207   1.000000
   12       -5.313898   1.000000
   13       -5.010387   1.000000
   14       -4.870028   1.000000
   15       -4.865977   1.000000
   16       -4.827900   1.000000
   17       -4.785530   1.000000
   18       -4.576024   1.000000
   19       -4.568356   1.000000
   20       -4.561806   1.000000
   21       -4.503290   1.000000
   22       -4.475109   1.000000
   23       -4.439242   1.000000
   24       -4.428302   1.000000
   25       -4.244520   1.000000
   26       -4.242767   1.000000
   27       -4.221382   1.000000
   28       -4.105456   1.000000
   29       -4.027990   1.000000
   30       -3.981891   1.000000
   31       -3.955050   1.000000
   32       -3.926091   1.000000
   33       -3.838876   1.000000
   34       -3.815653   1.000000
   35       -3.805014   1.000000
   36       -3.780268   1.000000
   37       -3.755705   1.000000
   38       -3.722735   1.000000
   39       -3.646949   1.000000
   40       -3.625584   1.000000
   41       -3.598596   1.000000
   42       -3.565935   1.000000
   43       -3.554043   1.000000
   44       -3.538071   1.000000
   45       -3.502258   1.000000
   46       -3.463723   1.000000
   47       -3.418130   1.000000
   48       -3.409381   1.000000
   49       -3.382519   1.000000
   50       -3.353616   1.000000
   51       -3.345504   1.000000
   52       -3.325319   1.000000
   53       -3.288154   1.000000
   54       -3.251239   1.000000
   55       -3.224566   1.000000
   56       -3.174418   1.000000
   57       -3.166856   1.000000
   58       -3.117237   1.000000
   59       -3.090874   1.000000
   60       -3.054229   1.000000
   61       -3.034828   1.000000
   62       -3.015317   1.000000
   63       -2.991707   1.000000
   64       -2.947139   1.000000
   65       -2.921640   1.000000
   66       -2.836456   1.000000
   67       -2.828511   1.000000
   68       -2.783023   1.000000
   69       -2.773150   1.000000
   70       -2.744321   1.000000
   71       -2.691308   1.000000
   72       -2.667809   1.000000
   73       -2.646940   1.000000
   74       -2.634981   1.000000
   75       -2.606999   1.000000
   76       -2.551473   1.000000
   77       -2.495667   1.000000
   78       -2.471039   1.000000
   79       -2.452954   1.000000
   80       -2.413886   1.000000
   81       -2.401085   1.000000
   82       -2.389121   1.000000
   83       -2.360426   1.000000
   84       -2.338201   1.000000
   85       -2.324920   1.000000
   86       -2.295838   1.000000
   87       -2.255902   1.000000
   88       -2.117438   1.000000
   89       -2.089199   1.000000
   90       -1.988435   1.000000
   91       -1.902084   1.000000
   92       -1.504668   1.000001
   93       -0.934696   1.005088
   94       -0.781241   0.583216
   95        0.110117  -0.000000
   96        0.560353  -0.000000
   97        0.745802  -0.000000
   98        0.904061  -0.000000
   99        1.219646  -0.000000
  100        1.520597  -0.000000
  101        2.005674  -0.000000
  102        2.251824  -0.000000
  103        2.624631  -0.000000