 vasp.5.4.4.18Apr17-6-g9f103f2a35 (build Aug 07 2018 15:16:41) complex          
  
 executed on             LinuxIFC date 2019.10.18  01:18:28
 running on   16 total cores
 distrk:  each k-point on   16 cores,    1 groups
 distr:  one band on NCORES_PER_BAND=   4 cores,    4 groups


--------------------------------------------------------------------------------------------------------


 INCAR:
 POTCAR:    PAW_PBE Cu 22Jun2005                  
 POTCAR:    PAW_PBE C 08Apr2002                   
 POTCAR:    PAW_PBE O 08Apr2002                   
 POTCAR:    PAW_PBE Cu 22Jun2005                  
   VRHFIN =Cu: d10 p1                                                           
   LEXCH  = PE                                                                  
   EATOM  =  1390.9808 eV,  102.2342 Ry                                         
                                                                                
   TITEL  = PAW_PBE Cu 22Jun2005                                                
   LULTRA =        F    use ultrasoft PP ?                                      
   IUNSCR =        1    unscreen: 0-lin 1-nonlin 2-no                           
   RPACOR =    2.000    partial core radius                                     
   POMASS =   63.546; ZVAL   =   11.000    mass and valenz                      
   RCORE  =    2.300    outmost cutoff radius                                   
   RWIGS  =    2.200; RWIGS  =    1.164    wigner-seitz radius (au A)           
   ENMAX  =  295.446; ENMIN  =  221.585 eV                                      
   ICORE  =        3    local potential                                         
   LCOR   =        T    correct aug charges                                     
   LPAW   =        T    paw PP                                                  
   EAUG   =  586.980                                                            
   DEXC   =    0.000                                                            
   RMAX   =    2.344    core radius for proj-oper                               
   RAUG   =    1.300    factor for augmentation sphere                          
   RDEP   =    2.302    radius for radial grids                                 
   RDEPT  =    1.771    core radius for aug-charge                              
                                                                                
   Atomic configuration                                                         
    9 entries                                                                   
     n  l   j            E        occ.                                          
     1  0  0.50     -8850.2468   2.0000                                         
     2  0  0.50     -1062.3498   2.0000                                         
     2  1  1.50      -916.8226   6.0000                                         
     3  0  0.50      -114.6929   2.0000                                         
     3  1  1.50       -72.1325   6.0000                                         
     3  2  2.50        -5.0394  10.0000                                         
     4  0  0.50        -4.6097   1.0000                                         
     4  1  0.50        -4.0817   0.0000                                         
     4  3  2.50        -1.3606   0.0000                                         
   Description                                                                  
     l       E           TYP  RCUT    TYP  RCUT                                 
     2     -5.0393973     23  2.200                                             
     2     10.8846608     23  2.200                                             
     0     -4.6097109     23  2.200                                             
     0      8.2520465     23  2.200                                             
     1     -2.7211652     23  2.200                                             
     1     21.7055443     23  2.200                                             
     3      2.7211652     23  2.300                                             
  local pseudopotential read in
  partial core-charges read in
  partial kinetic energy density read in
  atomic valenz-charges read in
  non local Contribution for L=           2  read in
    real space projection operators read in
  non local Contribution for L=           2  read in
    real space projection operators read in
  non local Contribution for L=           0  read in
    real space projection operators read in
  non local Contribution for L=           0  read in
    real space projection operators read in
  non local Contribution for L=           1  read in
    real space projection operators read in
  non local Contribution for L=           1  read in
    real space projection operators read in
    PAW grid and wavefunctions read in
 
   number of l-projection  operators is LMAX  =           6
   number of lm-projection operators is LMMAX =          18
 
 POTCAR:    PAW_PBE C 08Apr2002                   
   VRHFIN =C: s2p2                                                              
   LEXCH  = PE                                                                  
   EATOM  =   147.1560 eV,   10.8157 Ry                                         
                                                                                
   TITEL  = PAW_PBE C 08Apr2002                                                 
   LULTRA =        F    use ultrasoft PP ?                                      
   IUNSCR =        1    unscreen: 0-lin 1-nonlin 2-no                           
   RPACOR =    1.200    partial core radius                                     
   POMASS =   12.011; ZVAL   =    4.000    mass and valenz                      
   RCORE  =    1.500    outmost cutoff radius                                   
   RWIGS  =    1.630; RWIGS  =    0.863    wigner-seitz radius (au A)           
   ENMAX  =  400.000; ENMIN  =  300.000 eV                                      
   ICORE  =        2    local potential                                         
   LCOR   =        T    correct aug charges                                     
   LPAW   =        T    paw PP                                                  
   EAUG   =  644.873                                                            
   DEXC   =    0.000                                                            
   RMAX   =    1.529    core radius for proj-oper                               
   RAUG   =    1.300    factor for augmentation sphere                          
   RDEP   =    1.501    radius for radial grids                                 
   RDEPT  =    1.300    core radius for aug-charge                              
                                                                                
   Atomic configuration                                                         
    4 entries                                                                   
     n  l   j            E        occ.                                          
     1  0  0.50      -273.3789   2.0000                                         
     2  0  0.50       -13.7508   2.0000                                         
     2  1  0.50        -5.2854   2.0000                                         
     3  2  1.50        -5.4423   0.0000                                         
   Description                                                                  
     l       E           TYP  RCUT    TYP  RCUT                                 
     0    -13.7508458     23  1.200                                             
     0     -8.2022199     23  1.200                                             
     1     -5.2854383     23  1.500                                             
     1     34.0145650     23  1.500                                             
     2     -5.4423304      7  1.500                                             
  local pseudopotential read in
  partial core-charges read in
  partial kinetic energy density read in
  atomic valenz-charges read in
  non local Contribution for L=           0  read in
    real space projection operators read in
  non local Contribution for L=           0  read in
    real space projection operators read in
  non local Contribution for L=           1  read in
    real space projection operators read in
  non local Contribution for L=           1  read in
    real space projection operators read in
    PAW grid and wavefunctions read in
 
   number of l-projection  operators is LMAX  =           4
   number of lm-projection operators is LMMAX =           8
 
 POTCAR:    PAW_PBE O 08Apr2002                   
   VRHFIN =O: s2p4                                                              
   LEXCH  = PE                                                                  
   EATOM  =   432.3788 eV,   31.7789 Ry                                         
                                                                                
   TITEL  = PAW_PBE O 08Apr2002                                                 
   LULTRA =        F    use ultrasoft PP ?                                      
   IUNSCR =        1    unscreen: 0-lin 1-nonlin 2-no                           
   RPACOR =    1.200    partial core radius                                     
   POMASS =   16.000; ZVAL   =    6.000    mass and valenz                      
   RCORE  =    1.520    outmost cutoff radius                                   
   RWIGS  =    1.550; RWIGS  =    0.820    wigner-seitz radius (au A)           
   ENMAX  =  400.000; ENMIN  =  300.000 eV                                      
   ICORE  =        2    local potential                                         
   LCOR   =        T    correct aug charges                                     
   LPAW   =        T    paw PP                                                  
   EAUG   =  605.392                                                            
   DEXC   =    0.000                                                            
   RMAX   =    1.553    core radius for proj-oper                               
   RAUG   =    1.300    factor for augmentation sphere                          
   RDEP   =    1.550    radius for radial grids                                 
   RDEPT  =    1.329    core radius for aug-charge                              
                                                                                
   Atomic configuration                                                         
    4 entries                                                                   
     n  l   j            E        occ.                                          
     1  0  0.50      -514.6923   2.0000                                         
     2  0  0.50       -23.9615   2.0000                                         
     2  1  0.50        -9.0305   4.0000                                         
     3  2  1.50        -9.5241   0.0000                                         
   Description                                                                  
     l       E           TYP  RCUT    TYP  RCUT                                 
     0    -23.9615318     23  1.200                                             
     0     -9.5240782     23  1.200                                             
     1     -9.0304911     23  1.520                                             
     1      8.1634956     23  1.520                                             
     2     -9.5240782      7  1.500                                             
  local pseudopotential read in
  partial core-charges read in
  partial kinetic energy density read in
  kinetic energy density of atom read in
  atomic valenz-charges read in
  non local Contribution for L=           0  read in
    real space projection operators read in
  non local Contribution for L=           0  read in
    real space projection operators read in
  non local Contribution for L=           1  read in
    real space projection operators read in
  non local Contribution for L=           1  read in
    real space projection operators read in
    PAW grid and wavefunctions read in
 
   number of l-projection  operators is LMAX  =           4
   number of lm-projection operators is LMMAX =           8
 
 Optimization of the real space projectors (new method)

 maximal supplied QI-value         = 16.25
 optimisation between [QCUT,QGAM] = [  9.43, 19.01] = [ 24.88,101.24] Ry 
 Optimized for a Real-space Cutoff    1.66 Angstroem

   l    n(q)    QCUT    max X(q) W(low)/X(q) W(high)/X(q)  e(spline) 
   2      8     9.426     4.610    0.15E-03    0.59E-04    0.31E-06
   2      8     9.426     8.522    0.24E-03    0.87E-04    0.54E-06
   0      9     9.426    51.609    0.44E-04    0.64E-05    0.15E-06
   0      9     9.426    27.747    0.41E-04    0.65E-05    0.15E-06
   1      9     9.426    20.408    0.73E-04    0.11E-03    0.16E-06
   1      9     9.426    13.425    0.63E-04    0.98E-04    0.15E-06
 Optimization of the real space projectors (new method)

 maximal supplied QI-value         = 25.13
 optimisation between [QCUT,QGAM] = [  9.55, 19.10] = [ 25.54,102.17] Ry 
 Optimized for a Real-space Cutoff    1.39 Angstroem

   l    n(q)    QCUT    max X(q) W(low)/X(q) W(high)/X(q)  e(spline) 
   0      8     9.551   115.676    0.39E-03    0.54E-03    0.29E-06
   0      8     9.551    87.132    0.39E-03    0.54E-03    0.28E-06
   1      7     9.551     4.429    0.35E-03    0.51E-04    0.29E-06
   1      7     9.551     2.733    0.22E-03    0.42E-04    0.31E-06
 Optimization of the real space projectors (new method)

 maximal supplied QI-value         = 24.76
 optimisation between [QCUT,QGAM] = [  9.41, 19.06] = [ 24.78,101.75] Ry 
 Optimized for a Real-space Cutoff    1.48 Angstroem

   l    n(q)    QCUT    max X(q) W(low)/X(q) W(high)/X(q)  e(spline) 
   0      8     9.407    20.381    0.17E-03    0.13E-03    0.41E-06
   0      8     9.407    15.268    0.19E-03    0.15E-03    0.42E-06
   1      8     9.407     5.946    0.36E-03    0.29E-03    0.38E-06
   1      8     9.407     5.382    0.31E-03    0.24E-03    0.34E-06

 ----------------------------------------------------------------------------- 
|                                                                             |
|  ADVICE TO THIS USER RUNNING 'VASP/VAMP'   (HEAR YOUR MASTER'S VOICE ...):  |
|                                                                             |
|      You enforced a specific xc-type in the INCAR file,                     |
|      a different type was found on the POTCAR file                          |
|          I HOPE YOU KNOW, WHAT YOU ARE  DOING                               |
|                                                                             |
 ----------------------------------------------------------------------------- 

  PAW_PBE Cu 22Jun2005                  :
 energy of atom  1       EATOM=-1390.9808
 kinetic energy error for atom=    0.0356 (will be added to EATOM!!)
  PAW_PBE C 08Apr2002                   :
 energy of atom  2       EATOM= -147.1560
 kinetic energy error for atom=    0.0854 (will be added to EATOM!!)
  PAW_PBE O 08Apr2002                   :
 energy of atom  3       EATOM= -432.3788
 kinetic energy error for atom=    0.3782 (will be added to EATOM!!)
 
 
 POSCAR: Cu  C  O                                
  positions in cartesian coordinates
  No initial velocities read in
 exchange correlation table for  LEXCH =        9
   RHO(1)=    0.500       N(1)  =     2000
   RHO(2)=  100.500       N(2)  =     4000
 


--------------------------------------------------------------------------------------------------------


 ion  position               nearest neighbor table
   1  0.000  0.000  0.379-   5 2.60   3 2.60   3 2.60   4 2.60   4 2.60   2 2.60   2 2.60   6 2.60
                             7 2.60
   2  0.500  0.000  0.379-   6 2.60   4 2.60   3 2.60   4 2.60   3 2.60   1 2.60   1 2.60   5 2.60
                             8 2.60
   3  0.000  0.500  0.379-   7 2.60   1 2.60   1 2.60   2 2.60   2 2.60   4 2.60   4 2.60   5 2.60
                             8 2.60
   4  0.500  0.500  0.379-   8 2.60   2 2.60   1 2.60   2 2.60   1 2.60   3 2.60   3 2.60   7 2.60
                             6 2.60
   5  0.167  0.167  0.460-  10 2.55   9 2.59  12 2.59   1 2.60   7 2.60   7 2.60   8 2.60   8 2.60
                             6 2.60   6 2.60   3 2.60   2 2.60
   6  0.667  0.167  0.460-  10 2.55   9 2.59  11 2.59   2 2.60   8 2.60   7 2.60   8 2.60   7 2.60
                             5 2.60   5 2.60   4 2.60   1 2.60
   7  0.167  0.667  0.460-  10 2.55  12 2.59  11 2.59   3 2.60   5 2.60   5 2.60   6 2.60   6 2.60
                             8 2.60   8 2.60   4 2.60   1 2.60
   8  0.667  0.667  0.460-   9 2.59  12 2.59  11 2.59   4 2.60   6 2.60   5 2.60   6 2.60   5 2.60
                             7 2.60   7 2.60   2 2.60   3 2.60
   9  0.832  0.335  0.540-  13 2.54   8 2.59  12 2.59  11 2.59   6 2.59   5 2.59  10 2.60  10 2.60
                            15 2.61  16 2.61  11 2.61  12 2.61
  10  0.333  0.333  0.538-   5 2.55   6 2.55   7 2.55   9 2.60  12 2.60  11 2.60  11 2.60  12 2.60
                             9 2.60  14 2.66  15 2.66  16 2.66
  11  0.832  0.832  0.540-  13 2.54   8 2.59   9 2.59  12 2.59   6 2.59   7 2.59  10 2.60  10 2.60
                            14 2.61  15 2.61  12 2.61   9 2.61
  12  0.335  0.832  0.540-  13 2.54   8 2.59   9 2.59  11 2.59   7 2.59   5 2.59  10 2.60  10 2.60
                            14 2.61  16 2.61  11 2.61   9 2.61
  13  0.000  0.000  0.617-  11 2.54  12 2.54   9 2.54  15 2.60  14 2.60  16 2.60  16 2.60  14 2.60
                            15 2.60
  14  0.501  0.999  0.621-  17 2.07  15 2.59  16 2.59  13 2.60  13 2.60  16 2.61  15 2.61  11 2.61
                            12 2.61  10 2.66
  15  0.999  0.501  0.621-  17 2.07  14 2.59  16 2.59  13 2.60  13 2.60  16 2.61  14 2.61  11 2.61
                             9 2.61  10 2.66
  16  0.501  0.501  0.621-  17 2.07  14 2.59  15 2.59  13 2.60  13 2.60  15 2.61  14 2.61  12 2.61
                             9 2.61  10 2.66
  17  0.333  0.333  0.675-  18 1.19  14 2.07  15 2.07  16 2.07
  18  0.333  0.333  0.720-  17 1.19
 

IMPORTANT INFORMATION: All symmetrisations will be switched off!
NOSYMM: (Re-)initialisation of all symmetry stuff for point group C_1.

 
 
 KPOINTS: KPOINTS created by Atomic Simulation Env

Automatic generation of k-mesh.
Space group operators:
 irot       det(A)        alpha          n_x          n_y          n_z        tau_x        tau_y        tau_z
    1     1.000000     0.000000     1.000000     0.000000     0.000000     0.000000     0.000000     0.000000
 
 Subroutine IBZKPT returns following result:
 ===========================================
 
 Found     13 irreducible k-points:
 
 Following reciprocal coordinates:
            Coordinates               Weight
  0.000000  0.000000  0.000000      1.000000
  0.200000 -0.000000  0.000000      2.000000
  0.400000 -0.000000  0.000000      2.000000
  0.000000  0.200000  0.000000      2.000000
  0.200000  0.200000  0.000000      2.000000
  0.400000  0.200000  0.000000      2.000000
 -0.400000  0.200000  0.000000      2.000000
 -0.200000  0.200000  0.000000      2.000000
  0.000000  0.400000  0.000000      2.000000
  0.200000  0.400000  0.000000      2.000000
  0.400000  0.400000  0.000000      2.000000
 -0.400000  0.400000  0.000000      2.000000
 -0.200000  0.400000  0.000000      2.000000
 
 Following cartesian coordinates:
            Coordinates               Weight
  0.000000  0.000000  0.000000      1.000000
  0.038462 -0.022206  0.000000      2.000000
  0.076924 -0.044412  0.000000      2.000000
  0.000000  0.044412  0.000000      2.000000
  0.038462  0.022206  0.000000      2.000000
  0.076924  0.000000  0.000000      2.000000
 -0.076924  0.088824  0.000000      2.000000
 -0.038462  0.066618  0.000000      2.000000
  0.000000  0.088824  0.000000      2.000000
  0.038462  0.066618  0.000000      2.000000
  0.076924  0.044412  0.000000      2.000000
 -0.076924  0.133236  0.000000      2.000000
 -0.038462  0.111030  0.000000      2.000000
 


--------------------------------------------------------------------------------------------------------




 Dimension of arrays:
   k-points           NKPTS =     13   k-points in BZ     NKDIM =     13   number of bands    NBANDS=    112
   number of dos      NEDOS =    301   number of ions     NIONS =     18
   non local maximal  LDIM  =      6   non local SUM 2l+1 LMDIM =     18
   total plane-waves  NPLWV =  72576
   max r-space proj   IRMAX =   2306   max aug-charges    IRDMAX=   3604
   dimension x,y,z NGX =    24 NGY =   24 NGZ =  126
   dimension x,y,z NGXF=    48 NGYF=   48 NGZF=  252
   support grid    NGXF=    48 NGYF=   48 NGZF=  252
   ions per type =              16   1   1
   NGX,Y,Z   is equivalent  to a cutoff of   7.67,  7.67,  7.94 a.u.
   NGXF,Y,Z  is equivalent  to a cutoff of  15.35, 15.35, 15.89 a.u.

 SYSTEM =  unknown system                          
 POSCAR =  Cu  C  O                                

 Startparameter for this run:
   NWRITE =      2    write-flag & timer
   PREC   = normal    normal or accurate (medium, high low for compatibility)
   ISTART =      0    job   : 0-new  1-cont  2-samecut
   ICHARG =      2    charge: 1-file 2-atom 10-const
   ISPIN  =      1    spin polarized calculation?
   LNONCOLLINEAR =      F non collinear calculations
   LSORBIT =      F    spin-orbit coupling
   INIWAV =      1    electr: 0-lowe 1-rand  2-diag
   LASPH  =      F    aspherical Exc in radial PAW
   METAGGA=      F    non-selfconsistent MetaGGA calc.

 Electronic Relaxation 1
   ENCUT  =  350.0 eV  25.72 Ry    5.07 a.u.   7.93  7.93 40.22*2*pi/ulx,y,z
   ENINI  =  350.0     initial cutoff
   ENAUG  =  644.9 eV  augmentation charge cutoff
   NELM   =     60;   NELMIN=  2; NELMDL= -5     # of ELM steps 
   EDIFF  = 0.1E-03   stopping-criterion for ELM
   LREAL  =      T    real-space projection
   NLSPLINE    = F    spline interpolate recip. space projectors
   LCOMPAT=      F    compatible to vasp.4.4
   GGA_COMPAT  = T    GGA compatible to vasp.4.4-vasp.4.6
   LMAXPAW     = -100 max onsite density
   LMAXMIX     =    2 max onsite mixed and CHGCAR
   VOSKOWN=      0    Vosko Wilk Nusair interpolation
   ROPT   =   -0.00050  -0.00050  -0.00050
 Ionic relaxation
   EDIFFG = -.3E-01   stopping-criterion for IOM
   NSW    =      0    number of steps for IOM
   NBLOCK =      1;   KBLOCK =      1    inner block; outer block 
   IBRION =     -1    ionic relax: 0-MD 1-quasi-New 2-CG
   NFREE  =      1    steps in history (QN), initial steepest desc. (CG)
   ISIF   =      0    stress and relaxation
   IWAVPR =     10    prediction:  0-non 1-charg 2-wave 3-comb
   ISYM   =      0    0-nonsym 1-usesym 2-fastsym
   LCORR  =      T    Harris-Foulkes like correction to forces

   POTIM  = 0.5000    time-step for ionic-motion
   TEIN   =    0.0    initial temperature
   TEBEG  =    0.0;   TEEND  =   0.0 temperature during run
   SMASS  =  -3.00    Nose mass-parameter (am)
   estimated Nose-frequenzy (Omega)   =  0.10E-29 period in steps =****** mass=  -0.618E-27a.u.
   SCALEE = 1.0000    scale energy and forces
   NPACO  =    256;   APACO  = 16.0  distance and # of slots for P.C.
   PSTRESS=    0.0 pullay stress

  Mass of Ions in am
   POMASS =  63.55 12.01 16.00
  Ionic Valenz
   ZVAL   =  11.00  4.00  6.00
  Atomic Wigner-Seitz radii
   RWIGS  =   1.50  0.80  0.80
  virtual crystal weights 
   VCA    =   1.00  1.00  1.00
   NELECT =     186.0000    total number of electrons
   NUPDOWN=      -1.0000    fix difference up-down

 DOS related values:
   EMIN   =  10.00;   EMAX   =-10.00  energy-range for DOS
   EFERMI =   0.00
   ISMEAR =     1;   SIGMA  =   0.20  broadening in eV -4-tet -1-fermi 0-gaus

 Electronic relaxation 2 (details)
   IALGO  =     38    algorithm
   LDIAG  =      T    sub-space diagonalisation (order eigenvalues)
   LSUBROT=      F    optimize rotation matrix (better conditioning)
   TURBO    =      0    0=normal 1=particle mesh
   IRESTART =      0    0=no restart 2=restart with 2 vectors
   NREBOOT  =      0    no. of reboots
   NMIN     =      0    reboot dimension
   EREF     =   0.00    reference energy to select bands
   IMIX   =      4    mixing-type and parameters
     AMIX     =   0.40;   BMIX     =  1.00
     AMIX_MAG =   1.60;   BMIX_MAG =  1.00
     AMIN     =   0.10
     WC   =   100.;   INIMIX=   1;  MIXPRE=   1;  MAXMIX= -45

 Intra band minimization:
   WEIMIN = 0.0000     energy-eigenvalue tresh-hold
   EBREAK =  0.22E-06  absolut break condition
   DEPER  =   0.30     relativ break condition  

   TIME   =   0.40     timestep for ELM

  volume/ion in A,a.u.               =      34.30       231.50
  Fermi-wavevector in a.u.,A,eV,Ry     =   1.097420  2.073823 16.385914  1.204331
  Thomas-Fermi vector in A             =   2.233780
 
 Write flags
   LWAVE        =      F    write WAVECAR
   LDOWNSAMPLE  =      F    k-point downsampling of WAVECAR
   LCHARG       =      F    write CHGCAR
   LVTOT        =      F    write LOCPOT, total local potential
   LVHAR        =      F    write LOCPOT, Hartree potential only
   LELF         =      F    write electronic localiz. function (ELF)
   LORBIT       =      0    0 simple, 1 ext, 2 COOP (PROOUT), +10 PAW based schemes


 Dipole corrections
   LMONO  =      F    monopole corrections only (constant potential shift)
   LDIPOL =      F    correct potential (dipole corrections)
   IDIPOL =      0    1-x, 2-y, 3-z, 4-all directions 
   EPSILON=  1.0000000 bulk dielectric constant

 Exchange correlation treatment:
   GGA     =    RP    GGA type
   LEXCH   =     9    internal setting for exchange type
   VOSKOWN=      0    Vosko Wilk Nusair interpolation
   LHFCALC =     F    Hartree Fock is set to
   LHFONE  =     F    Hartree Fock one center treatment
   AEXX    =    0.0000 exact exchange contribution

 Linear response parameters
   LEPSILON=     F    determine dielectric tensor
   LRPA    =     F    only Hartree local field effects (RPA)
   LNABLA  =     F    use nabla operator in PAW spheres
   LVEL    =     F    velocity operator in full k-point grid
   LINTERFAST=   F  fast interpolation
   KINTER  =     0    interpolate to denser k-point grid
   CSHIFT  =0.1000    complex shift for real part using Kramers Kronig
   OMEGAMAX=  -1.0    maximum frequency
   DEG_THRESHOLD= 0.2000000E-02 threshold for treating states as degnerate
   RTIME   =   -0.100 relaxation time in fs
  (WPLASMAI=    0.000 imaginary part of plasma frequency in eV, 0.658/RTIME)
   DFIELD  = 0.0000000 0.0000000 0.0000000 field for delta impulse in time
 
 Orbital magnetization related:
   ORBITALMAG=     F  switch on orbital magnetization
   LCHIMAG   =     F  perturbation theory with respect to B field
   DQ        =  0.001000  dq finite difference perturbation B field
   LLRAUG    =     F  two centre corrections for induced B field



--------------------------------------------------------------------------------------------------------


 Static calculation
 charge density and potential will be updated during run
 non-spin polarized calculation
 Variant of blocked Davidson
 Davidson routine will perform the subspace rotation
 perform sub-space diagonalisation
    after iterative eigenvector-optimisation
 modified Broyden-mixing scheme, WC =      100.0
 initial mixing is a Kerker type mixing with AMIX =  0.4000 and BMIX =      1.0000
 Hartree-type preconditioning will be used
 using additional bands           19
 real space projection scheme for non local part
 use partial core corrections
 calculate Harris-corrections to forces 
   (improved forces if not selfconsistent)
 use gradient corrections 
 use of overlap-Matrix (Vanderbilt PP)
 Methfessel and Paxton  Order N= 1 SIGMA  =   0.20


--------------------------------------------------------------------------------------------------------


  energy-cutoff  :      350.00
  volume of cell :      617.47
      direct lattice vectors                 reciprocal lattice vectors
     5.199963631  0.000000000  0.000000000     0.192309037 -0.111029674  0.000000000
     2.599981815  4.503300603  0.000000000     0.000000000  0.222059349  0.000000000
     0.000000000  0.000000000 26.368628788     0.000000000  0.000000000  0.037923853

  length of vectors
     5.199963631  5.199963631 26.368628788     0.222059349  0.222059349  0.037923853


 
 k-points in units of 2pi/SCALE and weight: KPOINTS created by Atomic Simulation Env
   0.00000000  0.00000000  0.00000000       0.040
   0.03846181 -0.02220593  0.00000000       0.080
   0.07692361 -0.04441187  0.00000000       0.080
   0.00000000  0.04441187  0.00000000       0.080
   0.03846181  0.02220593  0.00000000       0.080
   0.07692361  0.00000000  0.00000000       0.080
  -0.07692361  0.08882374  0.00000000       0.080
  -0.03846181  0.06661780  0.00000000       0.080
   0.00000000  0.08882374  0.00000000       0.080
   0.03846181  0.06661780  0.00000000       0.080
   0.07692361  0.04441187  0.00000000       0.080
  -0.07692361  0.13323561  0.00000000       0.080
  -0.03846181  0.11102967  0.00000000       0.080
 
 k-points in reciprocal lattice and weights: KPOINTS created by Atomic Simulation Env
   0.00000000  0.00000000  0.00000000       0.040
   0.20000000 -0.00000000  0.00000000       0.080
   0.40000000 -0.00000000  0.00000000       0.080
   0.00000000  0.20000000  0.00000000       0.080
   0.20000000  0.20000000  0.00000000       0.080
   0.40000000  0.20000000  0.00000000       0.080
  -0.40000000  0.20000000  0.00000000       0.080
  -0.20000000  0.20000000  0.00000000       0.080
   0.00000000  0.40000000  0.00000000       0.080
   0.20000000  0.40000000  0.00000000       0.080
   0.40000000  0.40000000  0.00000000       0.080
  -0.40000000  0.40000000  0.00000000       0.080
  -0.20000000  0.40000000  0.00000000       0.080
 
 position of ions in fractional coordinates (direct lattice) 
   0.00000000  0.00000000  0.37923853
   0.50000000  0.00000000  0.37923853
   0.00000000  0.50000000  0.37923853
   0.50000000  0.50000000  0.37923853
   0.16666667  0.16666667  0.45974618
   0.66666667  0.16666667  0.45974618
   0.16666667  0.66666667  0.45974618
   0.66666667  0.66666667  0.45974618
   0.83247777  0.33503337  0.53981735
   0.33333139  0.33333139  0.53786352
   0.83249001  0.83249002  0.53981757
   0.33503333  0.83247779  0.53981735
   0.00000232  0.00000238  0.61711858
   0.50066979  0.99866295  0.62106858
   0.99866300  0.50066978  0.62106858
   0.50066969  0.50066970  0.62107254
   0.33332688  0.33332666  0.67499514
   0.33331476  0.33331424  0.72001527
 
 position of ions in cartesian coordinates  (Angst):
   0.00000000  0.00000000 10.00000000
   2.59998182  0.00000000 10.00000000
   1.29999091  2.25165030 10.00000000
   3.89997272  2.25165030 10.00000000
   1.29999091  0.75055010 12.12287626
   3.89997272  0.75055010 12.12287626
   2.59998182  3.00220040 12.12287626
   5.19996363  3.00220040 12.12287626
   5.19993478  1.50875599 14.23424320
   2.59996666  1.50109143 14.18272357
   6.49337667  3.74895280 14.23424904
   3.90658826  3.74889772 14.23424336
   0.00001822  0.00001070 16.27257069
   5.19997021  4.49727946 16.37672674
   6.49474359  2.25466652 16.37672689
   3.90519626  2.25466614 16.37683126
   2.59993088  1.50107014 17.79869619
   2.59983557  1.50101421 18.98581536
 


--------------------------------------------------------------------------------------------------------


 k-point  1 :   0.0000 0.0000 0.0000  plane waves:    9087
 k-point  2 :   0.2000-0.0000 0.0000  plane waves:    9166
 k-point  3 :   0.4000-0.0000 0.0000  plane waves:    9194
 k-point  4 :   0.0000 0.2000 0.0000  plane waves:    9166
 k-point  5 :   0.2000 0.2000 0.0000  plane waves:    9166
 k-point  6 :   0.4000 0.2000 0.0000  plane waves:    9184
 k-point  7 :  -0.4000 0.2000 0.0000  plane waves:    9208
 k-point  8 :  -0.2000 0.2000 0.0000  plane waves:    9184
 k-point  9 :   0.0000 0.4000 0.0000  plane waves:    9194
 k-point 10 :   0.2000 0.4000 0.0000  plane waves:    9184
 k-point 11 :   0.4000 0.4000 0.0000  plane waves:    9194
 k-point 12 :  -0.4000 0.4000 0.0000  plane waves:    9208
 k-point 13 :  -0.2000 0.4000 0.0000  plane waves:    9208

 maximum and minimum number of plane-waves per node :      2315     2241

 maximum number of plane-waves:      9208
 maximum index in each direction: 
   IXMAX=    8   IYMAX=    7   IZMAX=   40
   IXMIN=   -8   IYMIN=   -8   IZMIN=  -40


 real space projection operators:
  total allocation   :       5098.59 KBytes
  max/ min on nodes  :       1300.36       1261.62


 parallel 3D FFT for wavefunctions:
    minimum data exchange during FFTs selected (reduces bandwidth)
 parallel 3D FFT for charge:
    minimum data exchange during FFTs selected (reduces bandwidth)


 total amount of memory used by VASP MPI-rank0    51082. kBytes
=======================================================================

   base      :      30000. kBytes
   nonlr-proj:       2248. kBytes
   fftplans  :       1786. kBytes
   grid      :       3064. kBytes
   one-center:         77. kBytes
   wavefun   :      13907. kBytes
 
     INWAV:  cpu time    0.0000: real time    0.0002
 Broyden mixing: mesh for mixing (old mesh)
   NGX = 15   NGY = 15   NGZ = 81
  (NGX  = 48   NGY  = 48   NGZ  =252)
  gives a total of  18225 points

 initial charge density was supplied:
 charge density of overlapping atoms calculated
 number of electron     186.0000000 magnetization 
 keeping initial charge density in first step


--------------------------------------------------------------------------------------------------------


 Maximum index for non-local projection operator          546
 Maximum index for augmentation-charges          246 (set IRDMAX)


--------------------------------------------------------------------------------------------------------


 First call to EWALD:  gamma=   0.208
 Maximum number of real-space cells 5x 5x 1
 Maximum number of reciprocal cells 2x 2x 7

    FEWALD:  cpu time    0.0028: real time    0.0028


--------------------------------------- Iteration      1(   1)  ---------------------------------------


    POTLOK:  cpu time    0.0629: real time    0.0678
    SETDIJ:  cpu time    0.0049: real time    0.0049
     EDDAV:  cpu time    5.4912: real time    5.4920
       DOS:  cpu time    0.0023: real time    0.0023
    --------------------------------------------
      LOOP:  cpu time    5.5613: real time    5.5670

 eigenvalue-minimisations  :  2912
 total energy-change (2. order) : 0.1625734E+04  (-0.6290047E+04)
 number of electron     186.0000000 magnetization 
 augmentation part      186.0000000 magnetization 

 Free energy of the ion-electron system (eV)
  ---------------------------------------------------
  alpha Z        PSCENC =       333.59272159
  Ewald energy   TEWEN  =    110502.17087986
  -Hartree energ DENC   =   -132265.94472292
  -exchange      EXHF   =         0.00000000
  -V(xc)+E(xc)   XCENC  =       758.20525692
  PAW double counting   =     20119.38880325   -21798.78739505
  entropy T*S    EENTRO =        -0.00887627
  eigenvalues    EBANDS =      1159.43774140
  atomic energy  EATOM  =     22817.67997243
  Solvation  Ediel_sol  =         0.00000000
  ---------------------------------------------------
  free energy    TOTEN  =      1625.73438121 eV

  energy without entropy =     1625.74325748  energy(sigma->0) =     1625.73733996


--------------------------------------------------------------------------------------------------------




--------------------------------------- Iteration      1(   2)  ---------------------------------------


     EDDAV:  cpu time    5.5553: real time    5.5629
       DOS:  cpu time    0.0026: real time    0.0026
    --------------------------------------------
      LOOP:  cpu time    5.5579: real time    5.5655

 eigenvalue-minimisations  :  2912
 total energy-change (2. order) :-0.1469299E+04  (-0.1417770E+04)
 number of electron     186.0000000 magnetization 
 augmentation part      186.0000000 magnetization 

 Free energy of the ion-electron system (eV)
  ---------------------------------------------------
  alpha Z        PSCENC =       333.59272159
  Ewald energy   TEWEN  =    110502.17087986
  -Hartree energ DENC   =   -132265.94472292
  -exchange      EXHF   =         0.00000000
  -V(xc)+E(xc)   XCENC  =       758.20525692
  PAW double counting   =     20119.38880325   -21798.78739505
  entropy T*S    EENTRO =         0.01495551
  eigenvalues    EBANDS =      -309.88528847
  atomic energy  EATOM  =     22817.67997243
  Solvation  Ediel_sol  =         0.00000000
  ---------------------------------------------------
  free energy    TOTEN  =       156.43518312 eV

  energy without entropy =      156.42022761  energy(sigma->0) =      156.43019795


--------------------------------------------------------------------------------------------------------




--------------------------------------- Iteration      1(   3)  ---------------------------------------


     EDDAV:  cpu time    6.5122: real time    6.5131
       DOS:  cpu time    0.0022: real time    0.0022
    --------------------------------------------
      LOOP:  cpu time    6.5144: real time    6.5153

 eigenvalue-minimisations  :  3896
 total energy-change (2. order) :-0.2074404E+03  (-0.1933390E+03)
 number of electron     186.0000000 magnetization 
 augmentation part      186.0000000 magnetization 

 Free energy of the ion-electron system (eV)
  ---------------------------------------------------
  alpha Z        PSCENC =       333.59272159
  Ewald energy   TEWEN  =    110502.17087986
  -Hartree energ DENC   =   -132265.94472292
  -exchange      EXHF   =         0.00000000
  -V(xc)+E(xc)   XCENC  =       758.20525692
  PAW double counting   =     20119.38880325   -21798.78739505
  entropy T*S    EENTRO =         0.00495703
  eigenvalues    EBANDS =      -517.31566576
  atomic energy  EATOM  =     22817.67997243
  Solvation  Ediel_sol  =         0.00000000
  ---------------------------------------------------
  free energy    TOTEN  =       -51.00519265 eV

  energy without entropy =      -51.01014968  energy(sigma->0) =      -51.00684499


--------------------------------------------------------------------------------------------------------




--------------------------------------- Iteration      1(   4)  ---------------------------------------


     EDDAV:  cpu time    7.7942: real time    7.7947
       DOS:  cpu time    0.0021: real time    0.0021
    --------------------------------------------
      LOOP:  cpu time    7.7963: real time    7.7968

 eigenvalue-minimisations  :  4528
 total energy-change (2. order) :-0.2562885E+02  (-0.2398525E+02)
 number of electron     186.0000000 magnetization 
 augmentation part      186.0000000 magnetization 

 Free energy of the ion-electron system (eV)
  ---------------------------------------------------
  alpha Z        PSCENC =       333.59272159
  Ewald energy   TEWEN  =    110502.17087986
  -Hartree energ DENC   =   -132265.94472292
  -exchange      EXHF   =         0.00000000
  -V(xc)+E(xc)   XCENC  =       758.20525692
  PAW double counting   =     20119.38880325   -21798.78739505
  entropy T*S    EENTRO =        -0.00619122
  eigenvalues    EBANDS =      -542.93336410
  atomic energy  EATOM  =     22817.67997243
  Solvation  Ediel_sol  =         0.00000000
  ---------------------------------------------------
  free energy    TOTEN  =       -76.63403923 eV

  energy without entropy =      -76.62784801  energy(sigma->0) =      -76.63197549


--------------------------------------------------------------------------------------------------------




--------------------------------------- Iteration      1(   5)  ---------------------------------------


     EDDAV:  cpu time    7.4333: real time    7.4337
       DOS:  cpu time    0.0023: real time    0.0029
    CHARGE:  cpu time    0.2155: real time    0.2155
    MIXING:  cpu time    0.0122: real time    0.0122
    --------------------------------------------
      LOOP:  cpu time    7.6633: real time    7.6642

 eigenvalue-minimisations  :  4376
 total energy-change (2. order) :-0.1292954E+01  (-0.1258645E+01)
 number of electron     186.0000754 magnetization 
 augmentation part      104.7407480 magnetization 

 Broyden mixing:
  rms(total) = 0.31923E+01    rms(broyden)= 0.31909E+01
  rms(prec ) = 0.33570E+01
  weight for this iteration     100.00

 Free energy of the ion-electron system (eV)
  ---------------------------------------------------
  alpha Z        PSCENC =       333.59272159
  Ewald energy   TEWEN  =    110502.17087986
  -Hartree energ DENC   =   -132265.94472292
  -exchange      EXHF   =         0.00000000
  -V(xc)+E(xc)   XCENC  =       758.20525692
  PAW double counting   =     20119.38880325   -21798.78739505
  entropy T*S    EENTRO =        -0.01205430
  eigenvalues    EBANDS =      -544.22045459
  atomic energy  EATOM  =     22817.67997243
  Solvation  Ediel_sol  =         0.00000000
  ---------------------------------------------------
  free energy    TOTEN  =       -77.92699280 eV

  energy without entropy =      -77.91493851  energy(sigma->0) =      -77.92297471


--------------------------------------------------------------------------------------------------------




--------------------------------------- Iteration      1(   6)  ---------------------------------------


    POTLOK:  cpu time    0.0436: real time    0.0442
    SETDIJ:  cpu time    0.0069: real time    0.0069
     EDDAV:  cpu time    6.2797: real time    6.2798
       DOS:  cpu time    0.0024: real time    0.0024
    CHARGE:  cpu time    0.2797: real time    0.2798
    MIXING:  cpu time    0.0091: real time    0.0091
    --------------------------------------------
      LOOP:  cpu time    6.6214: real time    6.6221

 eigenvalue-minimisations  :  3448
 total energy-change (2. order) : 0.2254725E+01  (-0.1832853E+02)
 number of electron     186.0000944 magnetization 
 augmentation part      118.6093648 magnetization 

 Broyden mixing:
  rms(total) = 0.22044E+01    rms(broyden)= 0.22012E+01
  rms(prec ) = 0.23739E+01
  weight for this iteration     100.00

 eigenvalues of (default mixing * dielectric matrix)
  average eigenvalue GAMMA=   0.5968
  0.5968

 Free energy of the ion-electron system (eV)
  ---------------------------------------------------
  alpha Z        PSCENC =       333.59272159
  Ewald energy   TEWEN  =    110502.17087986
  -Hartree energ DENC   =   -131709.34031524
  -exchange      EXHF   =         0.00000000
  -V(xc)+E(xc)   XCENC  =       738.33531994
  PAW double counting   =     20304.66846920   -21891.33823095
  entropy T*S    EENTRO =        -0.00737432
  eigenvalues    EBANDS =     -1171.43371044
  atomic energy  EATOM  =     22817.67997243
  Solvation  Ediel_sol  =         0.00000000
  ---------------------------------------------------
  free energy    TOTEN  =       -75.67226792 eV

  energy without entropy =      -75.66489361  energy(sigma->0) =      -75.66980982


--------------------------------------------------------------------------------------------------------




--------------------------------------- Iteration      1(   7)  ---------------------------------------


    POTLOK:  cpu time    0.0461: real time    0.0471
    SETDIJ:  cpu time    0.0048: real time    0.0048
     EDDAV:  cpu time    5.9308: real time    5.9309
       DOS:  cpu time    0.0021: real time    0.0021
    CHARGE:  cpu time    0.2090: real time    0.2090
    MIXING:  cpu time    0.0013: real time    0.0013
    --------------------------------------------
      LOOP:  cpu time    6.1941: real time    6.1952

 eigenvalue-minimisations  :  3456
 total energy-change (2. order) : 0.1165457E+02  (-0.5029719E+01)
 number of electron     186.0000866 magnetization 
 augmentation part      114.4765604 magnetization 

 Broyden mixing:
  rms(total) = 0.65492E+00    rms(broyden)= 0.65337E+00
  rms(prec ) = 0.77792E+00
  weight for this iteration     100.00

 eigenvalues of (default mixing * dielectric matrix)
  average eigenvalue GAMMA=   0.5865
  0.5865  0.5865

 Free energy of the ion-electron system (eV)
  ---------------------------------------------------
  alpha Z        PSCENC =       333.59272159
  Ewald energy   TEWEN  =    110502.17087986
  -Hartree energ DENC   =   -131960.55664974
  -exchange      EXHF   =         0.00000000
  -V(xc)+E(xc)   XCENC  =       744.63955597
  PAW double counting   =     20745.78720112   -22407.75947237
  entropy T*S    EENTRO =         0.00607087
  eigenvalues    EBANDS =      -839.57798199
  atomic energy  EATOM  =     22817.67997243
  Solvation  Ediel_sol  =         0.00000000
  ---------------------------------------------------
  free energy    TOTEN  =       -64.01770227 eV

  energy without entropy =      -64.02377314  energy(sigma->0) =      -64.01972589


--------------------------------------------------------------------------------------------------------




--------------------------------------- Iteration      1(   8)  ---------------------------------------


    POTLOK:  cpu time    0.0473: real time    0.0475
    SETDIJ:  cpu time    0.0162: real time    0.0162
     EDDAV:  cpu time    7.0867: real time    7.0869
       DOS:  cpu time    0.0023: real time    0.0023
    CHARGE:  cpu time    0.2921: real time    0.2921
    MIXING:  cpu time    0.0016: real time    0.0016
    --------------------------------------------
      LOOP:  cpu time    7.4462: real time    7.4465

 eigenvalue-minimisations  :  4216
 total energy-change (2. order) :-0.1193076E+00  (-0.1788099E+01)
 number of electron     186.0000863 magnetization 
 augmentation part      113.6979307 magnetization 

 Broyden mixing:
  rms(total) = 0.48453E+00    rms(broyden)= 0.48420E+00
  rms(prec ) = 0.67862E+00
  weight for this iteration     100.00

 eigenvalues of (default mixing * dielectric matrix)
  average eigenvalue GAMMA=   0.5649
  0.6906  0.6906  0.3134

 Free energy of the ion-electron system (eV)
  ---------------------------------------------------
  alpha Z        PSCENC =       333.59272159
  Ewald energy   TEWEN  =    110502.17087986
  -Hartree energ DENC   =   -131988.50539473
  -exchange      EXHF   =         0.00000000
  -V(xc)+E(xc)   XCENC  =       745.32666146
  PAW double counting   =     20923.16615589   -22600.91669106
  entropy T*S    EENTRO =         0.03419781
  eigenvalues    EBANDS =      -796.68551316
  atomic energy  EATOM  =     22817.67997243
  Solvation  Ediel_sol  =         0.00000000
  ---------------------------------------------------
  free energy    TOTEN  =       -64.13700990 eV

  energy without entropy =      -64.17120772  energy(sigma->0) =      -64.14840917


--------------------------------------------------------------------------------------------------------




--------------------------------------- Iteration      1(   9)  ---------------------------------------


    POTLOK:  cpu time    0.0251: real time    0.0257
    SETDIJ:  cpu time    0.0051: real time    0.0051
     EDDAV:  cpu time    8.0875: real time    8.0875
       DOS:  cpu time    0.0022: real time    0.0030
    CHARGE:  cpu time    0.2932: real time    0.2932
    MIXING:  cpu time    0.0012: real time    0.0012
    --------------------------------------------
      LOOP:  cpu time    8.4143: real time    8.4157

 eigenvalue-minimisations  :  4552
 total energy-change (2. order) : 0.3358480E+00  (-0.8509642E+00)
 number of electron     186.0000856 magnetization 
 augmentation part      113.1324608 magnetization 

 Broyden mixing:
  rms(total) = 0.26307E+00    rms(broyden)= 0.26279E+00
  rms(prec ) = 0.33429E+00
  weight for this iteration     100.00

 eigenvalues of (default mixing * dielectric matrix)
  average eigenvalue GAMMA=   0.7883
  1.7467  0.5840  0.5840  0.2385

 Free energy of the ion-electron system (eV)
  ---------------------------------------------------
  alpha Z        PSCENC =       333.59272159
  Ewald energy   TEWEN  =    110502.17087986
  -Hartree energ DENC   =   -132005.50075170
  -exchange      EXHF   =         0.00000000
  -V(xc)+E(xc)   XCENC  =       745.63609715
  PAW double counting   =     21104.45420879   -22795.59350730
  entropy T*S    EENTRO =         0.01181631
  eigenvalues    EBANDS =      -766.25259903
  atomic energy  EATOM  =     22817.67997243
  Solvation  Ediel_sol  =         0.00000000
  ---------------------------------------------------
  free energy    TOTEN  =       -63.80116190 eV

  energy without entropy =      -63.81297821  energy(sigma->0) =      -63.80510067


--------------------------------------------------------------------------------------------------------




--------------------------------------- Iteration      1(  10)  ---------------------------------------


    POTLOK:  cpu time    0.0480: real time    0.0481
    SETDIJ:  cpu time    0.0132: real time    0.0132
     EDDAV:  cpu time    6.6518: real time    6.6519
       DOS:  cpu time    0.0021: real time    0.0021
    CHARGE:  cpu time    0.2477: real time    0.2477
    MIXING:  cpu time    0.0013: real time    0.0013
    --------------------------------------------
      LOOP:  cpu time    6.9642: real time    6.9644

 eigenvalue-minimisations  :  3712
 total energy-change (2. order) :-0.5330171E-01  (-0.2808849E+00)
 number of electron     186.0000857 magnetization 
 augmentation part      112.8071494 magnetization 

 Broyden mixing:
  rms(total) = 0.26167E+00    rms(broyden)= 0.26156E+00
  rms(prec ) = 0.28511E+00
  weight for this iteration     100.00

 eigenvalues of (default mixing * dielectric matrix)
  average eigenvalue GAMMA=   0.8067
  2.1602  0.6061  0.6061  0.4494  0.2119

 Free energy of the ion-electron system (eV)
  ---------------------------------------------------
  alpha Z        PSCENC =       333.59272159
  Ewald energy   TEWEN  =    110502.17087986
  -Hartree energ DENC   =   -132012.28759293
  -exchange      EXHF   =         0.00000000
  -V(xc)+E(xc)   XCENC  =       745.28191829
  PAW double counting   =     21396.91534929   -23104.72841709
  entropy T*S    EENTRO =         0.02509239
  eigenvalues    EBANDS =      -742.50438744
  atomic energy  EATOM  =     22817.67997243
  Solvation  Ediel_sol  =         0.00000000
  ---------------------------------------------------
  free energy    TOTEN  =       -63.85446360 eV

  energy without entropy =      -63.87955599  energy(sigma->0) =      -63.86282773


--------------------------------------------------------------------------------------------------------




--------------------------------------- Iteration      1(  11)  ---------------------------------------


    POTLOK:  cpu time    0.0261: real time    0.0263
    SETDIJ:  cpu time    0.0052: real time    0.0052
     EDDAV:  cpu time    5.7994: real time    5.7995
       DOS:  cpu time    0.0022: real time    0.0022
    CHARGE:  cpu time    0.2067: real time    0.2067
    MIXING:  cpu time    0.0019: real time    0.0019
    --------------------------------------------
      LOOP:  cpu time    6.0415: real time    6.0418

 eigenvalue-minimisations  :  3328
 total energy-change (2. order) :-0.6554935E-03  (-0.9968604E-01)
 number of electron     186.0000856 magnetization 
 augmentation part      112.8245790 magnetization 

 Broyden mixing:
  rms(total) = 0.16552E+00    rms(broyden)= 0.16548E+00
  rms(prec ) = 0.17945E+00
  weight for this iteration     100.00

 eigenvalues of (default mixing * dielectric matrix)
  average eigenvalue GAMMA=   0.7916
  2.2890  0.6632  0.6632  0.5135  0.2214  0.3992

 Free energy of the ion-electron system (eV)
  ---------------------------------------------------
  alpha Z        PSCENC =       333.59272159
  Ewald energy   TEWEN  =    110502.17087986
  -Hartree energ DENC   =   -132010.65895646
  -exchange      EXHF   =         0.00000000
  -V(xc)+E(xc)   XCENC  =       744.71855703
  PAW double counting   =     21512.41165793   -23224.66126073
  entropy T*S    EENTRO =         0.02160101
  eigenvalues    EBANDS =      -739.13029176
  atomic energy  EATOM  =     22817.67997243
  Solvation  Ediel_sol  =         0.00000000
  ---------------------------------------------------
  free energy    TOTEN  =       -63.85511910 eV

  energy without entropy =      -63.87672011  energy(sigma->0) =      -63.86231944


--------------------------------------------------------------------------------------------------------




--------------------------------------- Iteration      1(  12)  ---------------------------------------


    POTLOK:  cpu time    0.0307: real time    0.0308
    SETDIJ:  cpu time    0.0080: real time    0.0080
     EDDAV:  cpu time    7.1352: real time    7.1353
       DOS:  cpu time    0.0022: real time    0.0022
    CHARGE:  cpu time    0.2840: real time    0.2840
    MIXING:  cpu time    0.0086: real time    0.0086
    --------------------------------------------
      LOOP:  cpu time    7.4688: real time    7.4691

 eigenvalue-minimisations  :  3776
 total energy-change (2. order) : 0.2665608E-01  (-0.2470359E-01)
 number of electron     186.0000856 magnetization 
 augmentation part      112.9872641 magnetization 

 Broyden mixing:
  rms(total) = 0.91786E-01    rms(broyden)= 0.91756E-01
  rms(prec ) = 0.96932E-01
  weight for this iteration     100.00

 eigenvalues of (default mixing * dielectric matrix)
  average eigenvalue GAMMA=   0.8292
  2.2748  1.0402  0.6385  0.6385  0.6316  0.2208  0.3601

 Free energy of the ion-electron system (eV)
  ---------------------------------------------------
  alpha Z        PSCENC =       333.59272159
  Ewald energy   TEWEN  =    110502.17087986
  -Hartree energ DENC   =   -132003.53128845
  -exchange      EXHF   =         0.00000000
  -V(xc)+E(xc)   XCENC  =       744.31770477
  PAW double counting   =     21549.41579650   -23261.80174535
  entropy T*S    EENTRO =         0.02276123
  eigenvalues    EBANDS =      -745.69526561
  atomic energy  EATOM  =     22817.67997243
  Solvation  Ediel_sol  =         0.00000000
  ---------------------------------------------------
  free energy    TOTEN  =       -63.82846302 eV

  energy without entropy =      -63.85122425  energy(sigma->0) =      -63.83605010


--------------------------------------------------------------------------------------------------------




--------------------------------------- Iteration      1(  13)  ---------------------------------------


    POTLOK:  cpu time    0.0434: real time    0.0436
    SETDIJ:  cpu time    0.0051: real time    0.0051
     EDDAV:  cpu time    6.8731: real time    6.8735
       DOS:  cpu time    0.0024: real time    0.0039
    CHARGE:  cpu time    0.2598: real time    0.2598
    MIXING:  cpu time    0.0022: real time    0.0022
    --------------------------------------------
      LOOP:  cpu time    7.1860: real time    7.1881

 eigenvalue-minimisations  :  3840
 total energy-change (2. order) : 0.1070697E-01  (-0.9835811E-02)
 number of electron     186.0000858 magnetization 
 augmentation part      113.1587600 magnetization 

 Broyden mixing:
  rms(total) = 0.38423E-01    rms(broyden)= 0.38389E-01
  rms(prec ) = 0.45869E-01
  weight for this iteration     100.00

 eigenvalues of (default mixing * dielectric matrix)
  average eigenvalue GAMMA=   0.7907
  2.2808  1.1326  0.6566  0.6566  0.6553  0.2197  0.3937  0.3302

 Free energy of the ion-electron system (eV)
  ---------------------------------------------------
  alpha Z        PSCENC =       333.59272159
  Ewald energy   TEWEN  =    110502.17087986
  -Hartree energ DENC   =   -132000.19644415
  -exchange      EXHF   =         0.00000000
  -V(xc)+E(xc)   XCENC  =       744.06436977
  PAW double counting   =     21553.34082076   -23264.25199874
  entropy T*S    EENTRO =         0.02102634
  eigenvalues    EBANDS =      -750.23910390
  atomic energy  EATOM  =     22817.67997243
  Solvation  Ediel_sol  =         0.00000000
  ---------------------------------------------------
  free energy    TOTEN  =       -63.81775605 eV

  energy without entropy =      -63.83878239  energy(sigma->0) =      -63.82476483


--------------------------------------------------------------------------------------------------------




--------------------------------------- Iteration      1(  14)  ---------------------------------------


    POTLOK:  cpu time    0.0454: real time    0.0456
    SETDIJ:  cpu time    0.0070: real time    0.0070
     EDDAV:  cpu time    6.4529: real time    6.4531
       DOS:  cpu time    0.0023: real time    0.0023
    CHARGE:  cpu time    0.2644: real time    0.2643
    MIXING:  cpu time    0.0020: real time    0.0020
    --------------------------------------------
      LOOP:  cpu time    6.7740: real time    6.7744

 eigenvalue-minimisations  :  3592
 total energy-change (2. order) :-0.4737820E-03  (-0.5411857E-02)
 number of electron     186.0000860 magnetization 
 augmentation part      113.2536631 magnetization 

 Broyden mixing:
  rms(total) = 0.23944E-01    rms(broyden)= 0.23896E-01
  rms(prec ) = 0.26976E-01
  weight for this iteration     100.00

 eigenvalues of (default mixing * dielectric matrix)
  average eigenvalue GAMMA=   0.8672
  2.0988  2.0988  0.7556  0.7556  0.5647  0.5647  0.2199  0.3944  0.3518

 Free energy of the ion-electron system (eV)
  ---------------------------------------------------
  alpha Z        PSCENC =       333.59272159
  Ewald energy   TEWEN  =    110502.17087986
  -Hartree energ DENC   =   -131999.89624717
  -exchange      EXHF   =         0.00000000
  -V(xc)+E(xc)   XCENC  =       744.01598861
  PAW double counting   =     21551.57005981   -23261.72444576
  entropy T*S    EENTRO =         0.02189828
  eigenvalues    EBANDS =      -751.24905749
  atomic energy  EATOM  =     22817.67997243
  Solvation  Ediel_sol  =         0.00000000
  ---------------------------------------------------
  free energy    TOTEN  =       -63.81822983 eV

  energy without entropy =      -63.84012811  energy(sigma->0) =      -63.82552926


--------------------------------------------------------------------------------------------------------




--------------------------------------- Iteration      1(  15)  ---------------------------------------


    POTLOK:  cpu time    0.0235: real time    0.0242
    SETDIJ:  cpu time    0.0050: real time    0.0050
     EDDAV:  cpu time    5.9429: real time    5.9431
       DOS:  cpu time    0.0021: real time    0.0021
    CHARGE:  cpu time    0.2744: real time    0.2744
    MIXING:  cpu time    0.0018: real time    0.0017
    --------------------------------------------
      LOOP:  cpu time    6.2496: real time    6.2504

 eigenvalue-minimisations  :  3528
 total energy-change (2. order) :-0.2152134E-03  (-0.1417130E-02)
 number of electron     186.0000860 magnetization 
 augmentation part      113.2748998 magnetization 

 Broyden mixing:
  rms(total) = 0.27757E-01    rms(broyden)= 0.27751E-01
  rms(prec ) = 0.30879E-01
  weight for this iteration     100.00

 eigenvalues of (default mixing * dielectric matrix)
  average eigenvalue GAMMA=   0.8728
  2.3696  2.1246  0.8229  0.8229  0.6251  0.6251  0.2199  0.4438  0.3691  0.3046

 Free energy of the ion-electron system (eV)
  ---------------------------------------------------
  alpha Z        PSCENC =       333.59272159
  Ewald energy   TEWEN  =    110502.17087986
  -Hartree energ DENC   =   -132003.69402328
  -exchange      EXHF   =         0.00000000
  -V(xc)+E(xc)   XCENC  =       744.01790449
  PAW double counting   =     21553.11277241   -23263.06630186
  entropy T*S    EENTRO =         0.02136406
  eigenvalues    EBANDS =      -747.65373475
  atomic energy  EATOM  =     22817.67997243
  Solvation  Ediel_sol  =         0.00000000
  ---------------------------------------------------
  free energy    TOTEN  =       -63.81844504 eV

  energy without entropy =      -63.83980910  energy(sigma->0) =      -63.82556640


--------------------------------------------------------------------------------------------------------




--------------------------------------- Iteration      1(  16)  ---------------------------------------


    POTLOK:  cpu time    0.0240: real time    0.0241
    SETDIJ:  cpu time    0.0059: real time    0.0059
     EDDAV:  cpu time    6.6655: real time    6.6656
       DOS:  cpu time    0.0019: real time    0.0019
    CHARGE:  cpu time    0.3046: real time    0.3046
    MIXING:  cpu time    0.0020: real time    0.0020
    --------------------------------------------
      LOOP:  cpu time    7.0037: real time    7.0040

 eigenvalue-minimisations  :  3600
 total energy-change (2. order) : 0.1946380E-02  (-0.5584839E-03)
 number of electron     186.0000859 magnetization 
 augmentation part      113.2339818 magnetization 

 Broyden mixing:
  rms(total) = 0.11034E-01    rms(broyden)= 0.11019E-01
  rms(prec ) = 0.12259E-01
  weight for this iteration     100.00

 eigenvalues of (default mixing * dielectric matrix)
  average eigenvalue GAMMA=   0.8981
  2.4274  2.2512  0.9033  0.9033  0.6540  0.6540  0.6953  0.2200  0.4639  0.3858
  0.3213

 Free energy of the ion-electron system (eV)
  ---------------------------------------------------
  alpha Z        PSCENC =       333.59272159
  Ewald energy   TEWEN  =    110502.17087986
  -Hartree energ DENC   =   -132008.48423145
  -exchange      EXHF   =         0.00000000
  -V(xc)+E(xc)   XCENC  =       744.09725470
  PAW double counting   =     21557.39061497   -23267.89958785
  entropy T*S    EENTRO =         0.02132195
  eigenvalues    EBANDS =      -742.38544488
  atomic energy  EATOM  =     22817.67997243
  Solvation  Ediel_sol  =         0.00000000
  ---------------------------------------------------
  free energy    TOTEN  =       -63.81649866 eV

  energy without entropy =      -63.83782062  energy(sigma->0) =      -63.82360598


--------------------------------------------------------------------------------------------------------




--------------------------------------- Iteration      1(  17)  ---------------------------------------


    POTLOK:  cpu time    0.0256: real time    0.0262
    SETDIJ:  cpu time    0.0063: real time    0.0063
     EDDAV:  cpu time    7.4551: real time    7.4552
       DOS:  cpu time    0.0021: real time    0.0021
    CHARGE:  cpu time    0.2656: real time    0.2656
    MIXING:  cpu time    0.0018: real time    0.0018
    --------------------------------------------
      LOOP:  cpu time    7.7566: real time    7.7573

 eigenvalue-minimisations  :  4336
 total energy-change (2. order) : 0.2171162E-03  (-0.1490959E-03)
 number of electron     186.0000859 magnetization 
 augmentation part      113.2179391 magnetization 

 Broyden mixing:
  rms(total) = 0.56147E-02    rms(broyden)= 0.56126E-02
  rms(prec ) = 0.65395E-02
  weight for this iteration     100.00

 eigenvalues of (default mixing * dielectric matrix)
  average eigenvalue GAMMA=   0.9334
  2.5355  2.0750  1.4961  0.8817  0.8817  0.6563  0.6563  0.6347  0.2200  0.4569
  0.3801  0.3262

 Free energy of the ion-electron system (eV)
  ---------------------------------------------------
  alpha Z        PSCENC =       333.59272159
  Ewald energy   TEWEN  =    110502.17087986
  -Hartree energ DENC   =   -132010.17994968
  -exchange      EXHF   =         0.00000000
  -V(xc)+E(xc)   XCENC  =       744.13660622
  PAW double counting   =     21555.54319670   -23266.13318233
  entropy T*S    EENTRO =         0.02168244
  eigenvalues    EBANDS =      -740.64820878
  atomic energy  EATOM  =     22817.67997243
  Solvation  Ediel_sol  =         0.00000000
  ---------------------------------------------------
  free energy    TOTEN  =       -63.81628155 eV

  energy without entropy =      -63.83796398  energy(sigma->0) =      -63.82350903


--------------------------------------------------------------------------------------------------------




--------------------------------------- Iteration      1(  18)  ---------------------------------------


    POTLOK:  cpu time    0.0461: real time    0.0463
    SETDIJ:  cpu time    0.0051: real time    0.0051
     EDDAV:  cpu time    6.2937: real time    6.2939
       DOS:  cpu time    0.0022: real time    0.0034
    CHARGE:  cpu time    0.3516: real time    0.3516
    MIXING:  cpu time    0.0066: real time    0.0066
    --------------------------------------------
      LOOP:  cpu time    6.7054: real time    6.7070

 eigenvalue-minimisations  :  3304
 total energy-change (2. order) :-0.1420231E-03  (-0.9420369E-04)
 number of electron     186.0000859 magnetization 
 augmentation part      113.2035101 magnetization 

 Broyden mixing:
  rms(total) = 0.49242E-02    rms(broyden)= 0.49216E-02
  rms(prec ) = 0.55922E-02
  weight for this iteration     100.00

 eigenvalues of (default mixing * dielectric matrix)
  average eigenvalue GAMMA=   0.9390
  2.5618  2.0313  2.0313  0.9086  0.9086  0.6522  0.6522  0.6922  0.2200  0.4533
  0.3291  0.3905  0.3764

 Free energy of the ion-electron system (eV)
  ---------------------------------------------------
  alpha Z        PSCENC =       333.59272159
  Ewald energy   TEWEN  =    110502.17087986
  -Hartree energ DENC   =   -132012.37791588
  -exchange      EXHF   =         0.00000000
  -V(xc)+E(xc)   XCENC  =       744.15690658
  PAW double counting   =     21555.92678436   -23266.67339657
  entropy T*S    EENTRO =         0.02170193
  eigenvalues    EBANDS =      -738.31407787
  atomic energy  EATOM  =     22817.67997243
  Solvation  Ediel_sol  =         0.00000000
  ---------------------------------------------------
  free energy    TOTEN  =       -63.81642357 eV

  energy without entropy =      -63.83812550  energy(sigma->0) =      -63.82365755


--------------------------------------------------------------------------------------------------------




--------------------------------------- Iteration      1(  19)  ---------------------------------------


    POTLOK:  cpu time    0.0284: real time    0.0286
    SETDIJ:  cpu time    0.0048: real time    0.0048
     EDDAV:  cpu time    4.9552: real time    4.9553
       DOS:  cpu time    0.0023: real time    0.0023
    CHARGE:  cpu time    0.3034: real time    0.3034
    MIXING:  cpu time    0.0104: real time    0.0104
    --------------------------------------------
      LOOP:  cpu time    5.3045: real time    5.3047

 eigenvalue-minimisations  :  2480
 total energy-change (2. order) :-0.1027596E-03  (-0.2941702E-04)
 number of electron     186.0000859 magnetization 
 augmentation part      113.2024441 magnetization 

 Broyden mixing:
  rms(total) = 0.38908E-02    rms(broyden)= 0.38902E-02
  rms(prec ) = 0.43536E-02
  weight for this iteration     100.00

 eigenvalues of (default mixing * dielectric matrix)
  average eigenvalue GAMMA=   0.9877
  2.7031  2.7031  1.4870  1.4870  0.8575  0.8575  0.6531  0.6531  0.6749  0.2200
  0.4633  0.3255  0.3774  0.3649

 Free energy of the ion-electron system (eV)
  ---------------------------------------------------
  alpha Z        PSCENC =       333.59272159
  Ewald energy   TEWEN  =    110502.17087986
  -Hartree energ DENC   =   -132013.01746200
  -exchange      EXHF   =         0.00000000
  -V(xc)+E(xc)   XCENC  =       744.15594806
  PAW double counting   =     21555.46489054   -23266.18842148
  entropy T*S    EENTRO =         0.02172171
  eigenvalues    EBANDS =      -737.69677704
  atomic energy  EATOM  =     22817.67997243
  Solvation  Ediel_sol  =         0.00000000
  ---------------------------------------------------
  free energy    TOTEN  =       -63.81652633 eV

  energy without entropy =      -63.83824803  energy(sigma->0) =      -63.82376690


--------------------------------------------------------------------------------------------------------




--------------------------------------- Iteration      1(  20)  ---------------------------------------


    POTLOK:  cpu time    0.0503: real time    0.0515
    SETDIJ:  cpu time    0.0093: real time    0.0093
     EDDAV:  cpu time    4.5107: real time    4.5108
       DOS:  cpu time    0.0021: real time    0.0021
    CHARGE:  cpu time    0.2896: real time    0.2896
    MIXING:  cpu time    0.0073: real time    0.0073
    --------------------------------------------
      LOOP:  cpu time    4.8694: real time    4.8706

 eigenvalue-minimisations  :  2088
 total energy-change (2. order) :-0.1906530E-03  (-0.2074005E-04)
 number of electron     186.0000859 magnetization 
 augmentation part      113.2119320 magnetization 

 Broyden mixing:
  rms(total) = 0.15896E-02    rms(broyden)= 0.15875E-02
  rms(prec ) = 0.20364E-02
  weight for this iteration     100.00

 eigenvalues of (default mixing * dielectric matrix)
  average eigenvalue GAMMA=   1.0028
  2.7725  2.7725  1.6752  1.6752  0.8669  0.8669  0.6771  0.6771  0.6605  0.6605
  0.2200  0.4538  0.3820  0.3258  0.3567

 Free energy of the ion-electron system (eV)
  ---------------------------------------------------
  alpha Z        PSCENC =       333.59272159
  Ewald energy   TEWEN  =    110502.17087986
  -Hartree energ DENC   =   -132013.49004303
  -exchange      EXHF   =         0.00000000
  -V(xc)+E(xc)   XCENC  =       744.14317215
  PAW double counting   =     21553.51124076   -23264.04535019
  entropy T*S    EENTRO =         0.02167376
  eigenvalues    EBANDS =      -737.40098432
  atomic energy  EATOM  =     22817.67997243
  Solvation  Ediel_sol  =         0.00000000
  ---------------------------------------------------
  free energy    TOTEN  =       -63.81671698 eV

  energy without entropy =      -63.83839074  energy(sigma->0) =      -63.82394157


--------------------------------------------------------------------------------------------------------




--------------------------------------- Iteration      1(  21)  ---------------------------------------


    POTLOK:  cpu time    0.0320: real time    0.0322
    SETDIJ:  cpu time    0.0055: real time    0.0055
     EDDAV:  cpu time    3.7761: real time    3.7771
       DOS:  cpu time    0.0024: real time    0.0024
    CHARGE:  cpu time    0.2518: real time    0.2518
    MIXING:  cpu time    0.0024: real time    0.0024
    --------------------------------------------
      LOOP:  cpu time    4.0700: real time    4.0712

 eigenvalue-minimisations  :  1968
 total energy-change (2. order) :-0.1678242E-03  (-0.7735060E-05)
 number of electron     186.0000859 magnetization 
 augmentation part      113.2128276 magnetization 

 Broyden mixing:
  rms(total) = 0.15324E-02    rms(broyden)= 0.15321E-02
  rms(prec ) = 0.17575E-02
  weight for this iteration     100.00

 eigenvalues of (default mixing * dielectric matrix)
  average eigenvalue GAMMA=   0.9948
  3.0316  2.6004  1.7374  1.7374  0.8960  0.8960  0.6923  0.6923  0.6970  0.6970
  0.2200  0.4818  0.4818  0.3797  0.3256  0.3504

 Free energy of the ion-electron system (eV)
  ---------------------------------------------------
  alpha Z        PSCENC =       333.59272159
  Ewald energy   TEWEN  =    110502.17087986
  -Hartree energ DENC   =   -132014.31667219
  -exchange      EXHF   =         0.00000000
  -V(xc)+E(xc)   XCENC  =       744.14539537
  PAW double counting   =     21553.59073893   -23264.13076676
  entropy T*S    EENTRO =         0.02165549
  eigenvalues    EBANDS =      -736.57080954
  atomic energy  EATOM  =     22817.67997243
  Solvation  Ediel_sol  =         0.00000000
  ---------------------------------------------------
  free energy    TOTEN  =       -63.81688481 eV

  energy without entropy =      -63.83854030  energy(sigma->0) =      -63.82410330


--------------------------------------------------------------------------------------------------------




--------------------------------------- Iteration      1(  22)  ---------------------------------------


    POTLOK:  cpu time    0.0243: real time    0.0244
    SETDIJ:  cpu time    0.0049: real time    0.0049
     EDDAV:  cpu time    4.1419: real time    4.1420
       DOS:  cpu time    0.0021: real time    0.0021
    CHARGE:  cpu time    0.2479: real time    0.2479
    MIXING:  cpu time    0.0081: real time    0.0081
    --------------------------------------------
      LOOP:  cpu time    4.4293: real time    4.4295

 eigenvalue-minimisations  :  1952
 total energy-change (2. order) :-0.1167385E-03  (-0.4133274E-05)
 number of electron     186.0000859 magnetization 
 augmentation part      113.2107094 magnetization 

 Broyden mixing:
  rms(total) = 0.10035E-02    rms(broyden)= 0.10032E-02
  rms(prec ) = 0.12147E-02
  weight for this iteration     100.00

 eigenvalues of (default mixing * dielectric matrix)
  average eigenvalue GAMMA=   1.0591
  3.7205  2.5792  2.3470  1.3350  1.3350  0.9243  0.8328  0.8328  0.6756  0.6756
  0.6525  0.2200  0.4550  0.3837  0.3703  0.3253  0.3407

 Free energy of the ion-electron system (eV)
  ---------------------------------------------------
  alpha Z        PSCENC =       333.59272159
  Ewald energy   TEWEN  =    110502.17087986
  -Hartree energ DENC   =   -132014.77537121
  -exchange      EXHF   =         0.00000000
  -V(xc)+E(xc)   XCENC  =       744.14938098
  PAW double counting   =     21553.82192846   -23264.40281045
  entropy T*S    EENTRO =         0.02165652
  eigenvalues    EBANDS =      -736.07535974
  atomic energy  EATOM  =     22817.67997243
  Solvation  Ediel_sol  =         0.00000000
  ---------------------------------------------------
  free energy    TOTEN  =       -63.81700154 eV

  energy without entropy =      -63.83865807  energy(sigma->0) =      -63.82422039


--------------------------------------------------------------------------------------------------------




--------------------------------------- Iteration      1(  23)  ---------------------------------------


    POTLOK:  cpu time    0.0591: real time    0.0592
    SETDIJ:  cpu time    0.0065: real time    0.0065
     EDDAV:  cpu time    3.9294: real time    3.9298
       DOS:  cpu time    0.0023: real time    0.0023
    CHARGE:  cpu time    0.2350: real time    0.2350
    MIXING:  cpu time    0.0025: real time    0.0025
    --------------------------------------------
      LOOP:  cpu time    4.2347: real time    4.2352

 eigenvalue-minimisations  :  1920
 total energy-change (2. order) :-0.1658402E-03  (-0.3697095E-05)
 number of electron     186.0000859 magnetization 
 augmentation part      113.2084151 magnetization 

 Broyden mixing:
  rms(total) = 0.11594E-02    rms(broyden)= 0.11592E-02
  rms(prec ) = 0.13000E-02
  weight for this iteration     100.00

 eigenvalues of (default mixing * dielectric matrix)
  average eigenvalue GAMMA=   1.0904
  4.0413  2.7132  2.3968  1.5834  1.5834  0.8723  0.8723  0.7854  0.7854  0.6745
  0.6745  0.2200  0.5678  0.4629  0.3808  0.3254  0.3526  0.3360

 Free energy of the ion-electron system (eV)
  ---------------------------------------------------
  alpha Z        PSCENC =       333.59272159
  Ewald energy   TEWEN  =    110502.17087986
  -Hartree energ DENC   =   -132015.38934807
  -exchange      EXHF   =         0.00000000
  -V(xc)+E(xc)   XCENC  =       744.15393858
  PAW double counting   =     21553.94317892   -23264.56540992
  entropy T*S    EENTRO =         0.02168010
  eigenvalues    EBANDS =      -735.42478089
  atomic energy  EATOM  =     22817.67997243
  Solvation  Ediel_sol  =         0.00000000
  ---------------------------------------------------
  free energy    TOTEN  =       -63.81716738 eV

  energy without entropy =      -63.83884749  energy(sigma->0) =      -63.82439409


--------------------------------------------------------------------------------------------------------




--------------------------------------- Iteration      1(  24)  ---------------------------------------


    POTLOK:  cpu time    0.0279: real time    0.0281
    SETDIJ:  cpu time    0.0054: real time    0.0054
     EDDAV:  cpu time    4.0728: real time    4.0729
       DOS:  cpu time    0.0020: real time    0.0023
    --------------------------------------------
      LOOP:  cpu time    4.1081: real time    4.1086

 eigenvalue-minimisations  :  1944
 total energy-change (2. order) :-0.7762843E-04  (-0.2826075E-05)
 number of electron     186.0000859 magnetization 
 augmentation part      113.2084151 magnetization 

 Free energy of the ion-electron system (eV)
  ---------------------------------------------------
  alpha Z        PSCENC =       333.59272159
  Ewald energy   TEWEN  =    110502.17087986
  -Hartree energ DENC   =   -132015.65774733
  -exchange      EXHF   =         0.00000000
  -V(xc)+E(xc)   XCENC  =       744.15510112
  PAW double counting   =     21553.89533083   -23264.51868577
  entropy T*S    EENTRO =         0.02168898
  eigenvalues    EBANDS =      -735.15650672
  atomic energy  EATOM  =     22817.67997243
  Solvation  Ediel_sol  =         0.00000000
  ---------------------------------------------------
  free energy    TOTEN  =       -63.81724501 eV

  energy without entropy =      -63.83893399  energy(sigma->0) =      -63.82447467


--------------------------------------------------------------------------------------------------------




 average (electrostatic) potential at core
  the test charge radii are     0.9430  0.6991  0.7215
  (the norm of the test charge is              1.0000)
       1 -71.8693       2 -71.8881       3 -71.8880       4 -71.8881       5 -72.0860
       6 -72.0859       7 -72.0860       8 -72.0592       9 -72.0380      10 -71.9841
      11 -72.0382      12 -72.0380      13 -71.8073      14 -72.3336      15 -72.3337
      16 -72.3336      17 -58.2731      18 -78.9428
 
 
 
 E-fermi :  -0.7615     XC(G=0):  -5.0253     alpha+bet : -4.3918


 k-point     1 :       0.0000    0.0000    0.0000
  band No.  band energies     occupation 
      1     -24.2497      2.00000
      2     -11.1080      2.00000
      3      -9.2341      2.00000
      4      -8.3247      2.00000
      5      -7.4776      2.00000
      6      -7.3960      2.00000
      7      -7.3954      2.00000
      8      -6.1235      2.00000
      9      -5.5286      2.00000
     10      -5.3266      2.00000
     11      -5.3114      2.00000
     12      -5.3113      2.00000
     13      -5.1804      2.00000
     14      -5.1804      2.00000
     15      -5.1484      2.00000
     16      -4.9309      2.00000
     17      -4.9308      2.00000
     18      -4.8140      2.00000
     19      -4.7940      2.00000
     20      -4.7845      2.00000
     21      -4.7844      2.00000
     22      -4.7527      2.00000
     23      -4.7527      2.00000
     24      -4.6802      2.00000
     25      -4.4362      2.00000
     26      -4.4361      2.00000
     27      -4.3678      2.00000
     28      -3.9491      2.00000
     29      -3.9491      2.00000
     30      -3.8682      2.00000
     31      -3.7547      2.00000
     32      -3.7008      2.00000
     33      -3.7007      2.00000
     34      -3.6737      2.00000
     35      -3.6736      2.00000
     36      -3.6506      2.00000
     37      -3.5909      2.00000
     38      -3.5494      2.00000
     39      -3.5493      2.00000
     40      -3.5337      2.00000
     41      -3.5244      2.00000
     42      -3.5243      2.00000
     43      -3.4877      2.00000
     44      -3.4876      2.00000
     45      -3.4593      2.00000
     46      -3.4592      2.00000
     47      -3.3267      2.00000
     48      -3.3265      2.00000
     49      -3.3194      2.00000
     50      -3.3125      2.00000
     51      -3.2447      2.00000
     52      -3.2447      2.00000
     53      -3.2196      2.00000
     54      -3.1161      2.00000
     55      -3.1161      2.00000
     56      -2.9936      2.00000
     57      -2.9315      2.00000
     58      -2.9315      2.00000
     59      -2.8012      2.00000
     60      -2.8012      2.00000
     61      -2.7481      2.00000
     62      -2.6775      2.00000
     63      -2.6775      2.00000
     64      -2.6524      2.00000
[...]
      7      -7.1583      2.00000
      8      -6.1941      2.00000
      9      -6.1057      2.00000
     10      -6.0059      2.00000
     11      -5.3494      2.00000
     12      -5.0300      2.00000
     13      -4.9255      2.00000
     14      -4.7204      2.00000
     15      -4.6413      2.00000
     16      -4.5835      2.00000
     17      -4.5667      2.00000
     18      -4.5564      2.00000
     19      -4.4986      2.00000
     20      -4.3916      2.00000
     21      -4.3578      2.00000
     22      -4.3038      2.00000
     23      -4.2804      2.00000
     24      -4.2742      2.00000
     25      -4.2376      2.00000
     26      -4.2309      2.00000
     27      -4.1821      2.00000
     28      -4.1255      2.00000
     29      -4.0924      2.00000
     30      -4.0594      2.00000
     31      -4.0498      2.00000
     32      -4.0358      2.00000
     33      -4.0046      2.00000
     34      -3.9698      2.00000
     35      -3.9308      2.00000
     36      -3.8716      2.00000
     37      -3.8532      2.00000
     38      -3.8356      2.00000
     39      -3.7798      2.00000
     40      -3.7662      2.00000
     41      -3.7215      2.00000
     42      -3.6819      2.00000
     43      -3.6494      2.00000
     44      -3.6375      2.00000
     45      -3.6078      2.00000
     46      -3.5902      2.00000
     47      -3.5418      2.00000
     48      -3.5018      2.00000
     49      -3.4829      2.00000
     50      -3.3898      2.00000
     51      -3.3836      2.00000
     52      -3.3684      2.00000
     53      -3.3430      2.00000
     54      -3.3257      2.00000
     55      -3.2762      2.00000
     56      -3.2455      2.00000
     57      -3.1795      2.00000
     58      -3.1711      2.00000
     59      -3.1392      2.00000
     60      -3.0799      2.00000
     61      -3.0528      2.00000
     62      -3.0258      2.00000
     63      -2.9837      2.00000
     64      -2.9462      2.00000
     65      -2.9283      2.00000
     66      -2.8740      2.00000
     67      -2.8663      2.00000
     68      -2.8579      2.00000
     69      -2.8016      2.00000
     70      -2.7983      2.00000
     71      -2.7703      2.00000
     72      -2.7341      2.00000
     73      -2.6976      2.00000
     74      -2.6643      2.00000
     75      -2.6244      2.00000
     76      -2.6158      2.00000
     77      -2.5836      2.00000
     78      -2.5542      2.00000
     79      -2.5179      2.00000
     80      -2.5133      2.00000
     81      -2.4875      2.00000
     82      -2.4485      2.00000
     83      -2.4095      2.00000
     84      -2.4005      2.00000
     85      -2.3753      2.00000
     86      -2.3499      2.00000
     87      -2.3350      2.00000
     88      -2.2897      2.00000
     89      -2.1537      2.00000
     90      -1.9860      2.00000
     91      -1.8285      2.00000
     92      -1.7524      2.00000
     93      -1.1052      2.03549
     94      -0.5789     -0.02709
     95      -0.1427     -0.00011
     96       0.6326     -0.00000
     97       0.9102     -0.00000
     98       1.2705     -0.00000
     99       1.5401     -0.00000
    100       1.9706     -0.00000
    101       2.4194     -0.00000
    102       2.9589     -0.00000
    103       3.0238     -0.00000
    104       3.7867     -0.00000
    105       3.9141     -0.00000
    106       4.1019     -0.00000
    107       4.7457      0.00000
    108       4.9937      0.00000
    109       5.1892      0.00000
    110       5.3261      0.00000
    111       5.7699      0.00000
    112       5.7971      0.00000

 k-point    13 :      -0.2000    0.4000    0.0000
  band No.  band energies     occupation 
      1     -24.2504      2.00000
      2     -10.9562      2.00000
      3      -8.0077      2.00000
      4      -7.6210      2.00000
      5      -7.4581      2.00000
      6      -7.1892      2.00000
      7      -7.1583      2.00000
      8      -6.1941      2.00000
      9      -6.1057      2.00000
     10      -6.0059      2.00000
     11      -5.3495      2.00000
     12      -5.0300      2.00000
     13      -4.9255      2.00000
     14      -4.7204      2.00000
     15      -4.6413      2.00000
     16      -4.5835      2.00000
     17      -4.5667      2.00000
     18      -4.5564      2.00000
     19      -4.4986      2.00000
     20      -4.3916      2.00000
     21      -4.3577      2.00000
     22      -4.3038      2.00000
     23      -4.2803      2.00000
     24      -4.2741      2.00000
     25      -4.2376      2.00000
     26      -4.2309      2.00000
     27      -4.1820      2.00000
     28      -4.1255      2.00000
     29      -4.0924      2.00000
     30      -4.0594      2.00000
     31      -4.0498      2.00000
     32      -4.0359      2.00000
     33      -4.0047      2.00000
     34      -3.9698      2.00000
     35      -3.9307      2.00000
     36      -3.8716      2.00000
     37      -3.8533      2.00000
     38      -3.8356      2.00000
     39      -3.7799      2.00000
     40      -3.7662      2.00000
     41      -3.7215      2.00000
     42      -3.6819      2.00000
     43      -3.6494      2.00000
     44      -3.6375      2.00000
     45      -3.6078      2.00000
     46      -3.5903      2.00000
     47      -3.5418      2.00000
     48      -3.5018      2.00000
     49      -3.4830      2.00000
     50      -3.3898      2.00000
     51      -3.3836      2.00000
     52      -3.3684      2.00000
     53      -3.3430      2.00000
     54      -3.3258      2.00000
     55      -3.2762      2.00000
     56      -3.2455      2.00000
     57      -3.1795      2.00000
     58      -3.1711      2.00000
     59      -3.1392      2.00000
     60      -3.0798      2.00000
     61      -3.0528      2.00000
     62      -3.0258      2.00000
     63      -2.9837      2.00000
     64      -2.9462      2.00000
     65      -2.9282      2.00000
     66      -2.8740      2.00000
     67      -2.8663      2.00000
     68      -2.8579      2.00000
     69      -2.8017      2.00000
     70      -2.7983      2.00000
     71      -2.7702      2.00000
     72      -2.7341      2.00000
     73      -2.6976      2.00000
     74      -2.6643      2.00000
     75      -2.6243      2.00000
     76      -2.6157      2.00000
     77      -2.5836      2.00000
     78      -2.5542      2.00000
     79      -2.5178      2.00000
     80      -2.5132      2.00000
     81      -2.4875      2.00000
     82      -2.4485      2.00000
     83      -2.4095      2.00000
     84      -2.4005      2.00000
     85      -2.3752      2.00000
     86      -2.3499      2.00000
     87      -2.3352      2.00000
     88      -2.2898      2.00000
     89      -2.1538      2.00000
     90      -1.9861      2.00000
     91      -1.8286      2.00000
     92      -1.7523      2.00000
     93      -1.1052      2.03548
     94      -0.5790     -0.02696
     95      -0.1426     -0.00011
     96       0.6324     -0.00000
     97       0.9100     -0.00000
     98       1.2704     -0.00000
     99       1.5403     -0.00000
    100       1.9703     -0.00000
    101       2.4190     -0.00000
    102       2.9584     -0.00000
    103       3.0252     -0.00000
    104       3.7867     -0.00000
    105       3.9141     -0.00000
    106       4.1016     -0.00000
    107       4.7458      0.00000
    108       4.9926      0.00000
    109       5.1910      0.00000
    110       5.3269      0.00000
    111       5.7731      0.00000
    112       5.7947      0.00000


--------------------------------------------------------------------------------------------------------


 soft charge-density along one line, spin component           1
         0         1         2         3         4         5         6         7         8         9
 total charge-density along one line
 
 pseudopotential strength for first ion, spin component:           1
 -8.730  -0.000   0.000  -0.004   0.000  -0.315   0.000  -0.000
 -0.000  -8.687  -0.000   0.000  -0.004   0.000  -0.349   0.000
  0.000  -0.000  -8.682  -0.000   0.000  -0.000   0.000  -0.355
 -0.004   0.000  -0.000  -8.687  -0.000   0.003  -0.000   0.000
  0.000  -0.004   0.000  -0.000  -8.730  -0.000   0.003  -0.000
 -0.315   0.000  -0.000   0.003  -0.000   7.221  -0.000   0.000
  0.000  -0.349   0.000  -0.000   0.003  -0.000   7.247  -0.000
 -0.000   0.000  -0.355   0.000  -0.000   0.000  -0.000   7.251
  0.003  -0.000   0.000  -0.349   0.000  -0.003  -0.000  -0.000
 -0.000   0.003  -0.000   0.000  -0.315   0.000  -0.003   0.000
  0.000   0.000  -0.008   0.000   0.000   0.000   0.000   0.004
  0.000   0.000  -0.016   0.000   0.000   0.000   0.000   0.006
  0.000  -0.009  -0.000  -0.000   0.000  -0.000   0.008  -0.000
 -0.000   0.000  -0.009   0.000  -0.000  -0.000  -0.000   0.007
  0.000  -0.000  -0.000  -0.009   0.000  -0.000  -0.000   0.000
  0.000  -0.011  -0.000   0.000   0.000  -0.000   0.009  -0.000
  0.000   0.000  -0.010   0.000   0.000  -0.000   0.000   0.007
  0.000   0.000  -0.000  -0.011   0.000  -0.000  -0.000  -0.000
 total augmentation occupancy for first ion, spin component:           1
  1.901  -0.000   0.000  -0.006   0.000  -0.022  -0.000   0.000   0.005   0.000  -0.000   0.000  -0.000   0.000   0.008   0.000
 -0.000   1.924  -0.000  -0.000  -0.006  -0.000  -0.038   0.000  -0.000   0.005  -0.000   0.000   0.014   0.000   0.000  -0.012
  0.000  -0.000   1.921  -0.000   0.000   0.000   0.000  -0.033   0.000   0.000   0.000   0.013  -0.000   0.055   0.000   0.000
 -0.006  -0.000  -0.000   1.924  -0.000   0.005  -0.000  -0.000  -0.038  -0.000  -0.000  -0.000   0.000   0.000   0.014  -0.000
  0.000  -0.006   0.000  -0.000   1.901   0.000   0.005   0.000  -0.000  -0.022  -0.000   0.000   0.008   0.000  -0.000  -0.001
 -0.022  -0.000   0.000   0.005   0.000   0.012   0.000  -0.000   0.000  -0.000  -0.000   0.000  -0.000  -0.000   0.002   0.000
 -0.000  -0.038   0.000  -0.000   0.005   0.000   0.009  -0.000   0.000   0.000   0.000   0.000   0.013   0.000  -0.000  -0.001
  0.000   0.000  -0.033  -0.000   0.000  -0.000  -0.000   0.012   0.000  -0.000  -0.040   0.002   0.000   0.019   0.000  -0.000
  0.005  -0.000   0.000  -0.038  -0.000   0.000   0.000   0.000   0.009   0.000   0.000   0.000  -0.000  -0.000   0.013   0.000
  0.000   0.005   0.000  -0.000  -0.022  -0.000   0.000  -0.000   0.000   0.012  -0.000   0.000   0.002  -0.000  -0.000  -0.000
 -0.000  -0.000   0.000  -0.000  -0.000  -0.000   0.000  -0.040   0.000  -0.000   1.603  -0.118   0.000   0.124  -0.000  -0.000
  0.000   0.000   0.013  -0.000   0.000   0.000   0.000   0.002   0.000   0.000  -0.118   0.014   0.000  -0.019   0.000  -0.000
 -0.000   0.014  -0.000   0.000   0.008  -0.000   0.013   0.000  -0.000   0.002   0.000   0.000   0.187  -0.000  -0.000  -0.011
  0.000   0.000   0.055   0.000   0.000  -0.000   0.000   0.019  -0.000  -0.000   0.124  -0.019  -0.000   0.109  -0.000  -0.000
  0.008   0.000   0.000   0.014  -0.000   0.002  -0.000   0.000   0.013  -0.000  -0.000   0.000  -0.000  -0.000   0.187   0.000
  0.000  -0.012   0.000  -0.000  -0.001   0.000  -0.001  -0.000   0.000  -0.000  -0.000  -0.000  -0.011  -0.000   0.000   0.001
 -0.000  -0.000  -0.017  -0.000  -0.000   0.000   0.000  -0.001  -0.000  -0.000  -0.018   0.002  -0.000  -0.007   0.000   0.000
 -0.001  -0.000  -0.000  -0.012   0.000  -0.000   0.000  -0.000  -0.001   0.000  -0.000  -0.000   0.000  -0.000  -0.011  -0.000


------------------------ aborting loop because EDIFF is reached ----------------------------------------


    CHARGE:  cpu time    0.3387: real time    0.3387
    FORLOC:  cpu time    0.0079: real time    0.0079
    FORNL :  cpu time    1.0551: real time    1.0551
    FORCOR:  cpu time    0.0528: real time    0.0528
    FORHAR:  cpu time    0.0310: real time    0.0310
    MIXING:  cpu time    0.0059: real time    0.0060
    OFIELD:  cpu time    0.0000: real time    0.0000

 VOLUME and BASIS-vectors are now :
 -----------------------------------------------------------------------------
  energy-cutoff  :      350.00
  volume of cell :      617.47
      direct lattice vectors                 reciprocal lattice vectors
     5.199963631  0.000000000  0.000000000     0.192309037 -0.111029674  0.000000000
     2.599981815  4.503300603  0.000000000     0.000000000  0.222059349  0.000000000
     0.000000000  0.000000000 26.368628788     0.000000000  0.000000000  0.037923853

  length of vectors
     5.199963631  5.199963631 26.368628788     0.222059349  0.222059349  0.037923853


 FORCES acting on ions
    electron-ion (+dipol)            ewald-force                    non-local-force                 convergence-correction
 -----------------------------------------------------------------------------------------------
   0.754E-04 -.115E-03 0.395E+04   0.946E-04 0.536E-04 -.395E+04   -.301E-04 0.615E-05 -.288E+01   -.158E-03 0.536E-04 -.139E-02
   -.539E-04 0.328E+00 0.395E+04   -.813E-04 -.284E+00 -.395E+04   -.130E-04 -.232E-01 -.197E+01   0.166E-03 0.168E-03 -.100E-02
   0.284E+00 -.164E+00 0.395E+04   -.246E+00 0.142E+00 -.395E+04   -.201E-01 0.116E-01 -.197E+01   0.823E-04 -.272E-04 -.120E-02
   -.284E+00 -.164E+00 0.395E+04   0.246E+00 0.142E+00 -.395E+04   0.201E-01 0.116E-01 -.197E+01   -.689E-04 -.222E-03 -.966E-03
   0.601E+01 0.347E+01 0.149E+04   -.585E+01 -.338E+01 -.149E+04   -.230E+00 -.133E+00 -.104E+01   0.124E-02 0.725E-03 0.725E-02
   -.601E+01 0.347E+01 0.149E+04   0.585E+01 -.338E+01 -.149E+04   0.230E+00 -.133E+00 -.104E+01   -.123E-02 0.842E-03 0.726E-02
   0.169E-02 -.694E+01 0.149E+04   -.182E-02 0.676E+01 -.149E+04   0.567E-04 0.266E+00 -.104E+01   0.903E-04 -.150E-02 0.718E-02
   -.384E-02 -.225E-02 0.149E+04   0.393E-02 0.229E-02 -.149E+04   0.698E-04 0.738E-04 -.120E+01   -.919E-04 -.767E-04 0.891E-02
   -.106E-01 -.257E+01 -.998E+03   0.108E-01 0.251E+01 0.998E+03   0.275E-03 0.603E-01 0.654E+00   -.382E-03 0.212E-02 0.286E-01
   0.379E-02 0.247E-02 -.959E+03   -.413E-02 -.236E-02 0.958E+03   -.751E-04 -.165E-04 0.402E+00   0.396E-03 -.121E-03 0.261E-01
   0.224E+01 0.129E+01 -.998E+03   -.219E+01 -.126E+01 0.998E+03   -.526E-01 -.304E-01 0.653E+00   -.198E-02 -.773E-03 0.286E-01
   -.223E+01 0.127E+01 -.998E+03   0.218E+01 -.125E+01 0.998E+03   0.523E-01 -.299E-01 0.654E+00   0.196E-02 -.123E-02 0.290E-01
   0.379E-02 0.235E-02 -.345E+04   -.417E-02 -.246E-02 0.344E+04   0.243E-03 0.142E-03 0.306E+01   0.154E-03 -.200E-04 -.157E-02
   -.699E-02 0.827E+02 -.345E+04   0.708E-02 -.859E+02 0.345E+04   0.669E-04 0.320E+01 0.149E+01   -.145E-03 -.258E-02 -.560E-02
   0.717E+02 -.414E+02 -.345E+04   -.744E+02 0.430E+02 0.345E+04   0.277E+01 -.160E+01 0.149E+01   -.214E-02 0.120E-02 -.541E-02
   -.717E+02 -.414E+02 -.345E+04   0.744E+02 0.430E+02 0.345E+04   -.277E+01 -.160E+01 0.149E+01   0.218E-02 0.138E-02 -.577E-02
   -.111E-01 -.649E-02 -.148E+04   0.124E-01 0.733E-02 0.147E+04   -.132E-02 -.804E-03 0.135E+02   0.147E-03 -.583E-04 -.897E-03
   0.163E-01 0.959E-02 -.249E+04   -.211E-01 -.124E-01 0.255E+04   0.461E-02 0.269E-02 -.570E+02   0.354E-04 -.284E-05 0.160E-02
 -----------------------------------------------------------------------------------------------
   -.404E-02 -.219E-02 0.466E+02   -.168E-13 -.643E-14 -.182E-11   0.366E-02 0.221E-02 -.467E+02   0.257E-03 -.125E-03 0.121E+00
 
 
 POSITION                                       TOTAL-FORCE (eV/Angst)
 -----------------------------------------------------------------------------------
      0.00000      0.00000     10.00000        -0.000011      0.000004     -0.001784
      2.59998      0.00000     10.00000         0.000025      0.021024      0.053690
      1.29999      2.25165     10.00000         0.018204     -0.010489      0.053695
      3.89997      2.25165     10.00000        -0.018191     -0.010514      0.053687
      1.29999      0.75055     12.12288        -0.071731     -0.041416     -0.035941
      3.89997      0.75055     12.12288         0.071771     -0.041408     -0.035994
      2.59998      3.00220     12.12288         0.000028      0.082862     -0.035996
      5.19996      3.00220     12.12288         0.000075      0.000047      0.000126
      5.19993      1.50876     14.23424         0.000021      0.006572     -0.001478
      2.59997      1.50109     14.18272        -0.000010     -0.000015      0.000518
      6.49338      3.74895     14.23425        -0.005737     -0.003291     -0.001533
      3.90659      3.74890     14.23424         0.005715     -0.003259     -0.001477
      0.00002      0.00001     16.27257         0.000017      0.000017      0.009041
      5.19997      4.49728     16.37673         0.000013     -0.001271     -0.006680
      6.49474      2.25467     16.37673        -0.001123      0.000657     -0.006681
      3.90520      2.25467     16.37683         0.000994      0.000574     -0.006624
      2.59993      1.50107     17.79870         0.000081     -0.000014     -0.003225
      2.59984      1.50101     18.98582        -0.000141     -0.000081     -0.033345
 -----------------------------------------------------------------------------------
    total drift:                               -0.000121     -0.000110     -0.034754


--------------------------------------------------------------------------------------------------------



  FREE ENERGIE OF THE ION-ELECTRON SYSTEM (eV)
  ---------------------------------------------------
  free  energy   TOTEN  =       -63.81724501 eV

  energy  without entropy=      -63.83893399  energy(sigma->0) =      -63.82447467
 


--------------------------------------------------------------------------------------------------------


    POTLOK:  cpu time    0.0496: real time    0.0497


--------------------------------------------------------------------------------------------------------


     LOOP+:  cpu time  152.4887: real time  152.5279
    4ORBIT:  cpu time    0.0000: real time    0.0000

volume of typ            1:    36.6 %

volume of typ            2:     0.3 %

volume of typ            3:     0.3 %
 
total charge     
 
# of ion       s       p       d       tot
------------------------------------------
    1        0.663   0.508   9.480  10.652
    2        0.661   0.512   9.477  10.650
    3        0.661   0.512   9.477  10.650
    4        0.661   0.512   9.477  10.650
    5        0.658   0.674   9.507  10.840
    6        0.658   0.674   9.507  10.840
    7        0.658   0.674   9.507  10.840
    8        0.663   0.670   9.506  10.839
    9        0.667   0.687   9.500  10.854
   10        0.667   0.674   9.504  10.846
   11        0.667   0.687   9.500  10.854
   12        0.667   0.687   9.500  10.854
   13        0.658   0.542   9.504  10.704
   14        0.665   0.663   9.500  10.828
   15        0.665   0.663   9.500  10.828
   16        0.665   0.663   9.500  10.828
   17        0.815   1.398   0.080   2.294
   18        1.441   3.181   0.041   4.663
--------------------------------------------------
tot          12.86   14.58  152.07  179.51
 

 total amount of memory used by VASP MPI-rank0    51082. kBytes
=======================================================================

   base      :      30000. kBytes
   nonlr-proj:       2248. kBytes
   fftplans  :       1786. kBytes
   grid      :       3064. kBytes
   one-center:         77. kBytes
   wavefun   :      13907. kBytes
 
  
  
 General timing and accounting informations for this job:
 ========================================================
  
                  Total CPU time used (sec):      156.760
                            User time (sec):      149.802
                          System time (sec):        6.958
                         Elapsed time (sec):      158.220
  
                   Maximum memory used (kb):       96344.
                   Average memory used (kb):           0.
  
                          Minor page faults:        42007
                          Major page faults:            6
                 Voluntary context switches:          578
