PROCAR new format
# of k-points:   13         # of bands:  112         # of ions:   18

 k-point     1 :    0.00000000 0.00000000 0.00000000     weight = 0.04000000

band     1 # energy  -24.24972362 # occ.  2.00000000
 
ion      s      p      d    tot
    1  0.000  0.000  0.000  0.000
    2  0.000  0.000  0.000  0.000
    3  0.000  0.000  0.000  0.000
    4  0.000  0.000  0.000  0.000
    5  0.000  0.000  0.000  0.000
    6  0.000  0.000  0.000  0.000
    7  0.000  0.000  0.000  0.000
    8  0.000  0.000  0.000  0.000
    9  0.000  0.000  0.000  0.000
   10  0.000  0.000  0.000  0.000
   11  0.000  0.000  0.000  0.000
   12  0.000  0.000  0.000  0.000
   13  0.000  0.000  0.000  0.000
   14  0.000  0.000  0.000  0.001
   15  0.000  0.000  0.000  0.001
   16  0.000  0.000  0.000  0.001
   17  0.130  0.093  0.013  0.237
   18  0.559  0.076  0.005  0.640
tot    0.690  0.170  0.019  0.880
 
band     2 # energy  -11.10804118 # occ.  2.00000000
 
ion      s      p      d    tot
    1  0.000  0.000  0.000  0.000
    2  0.000  0.000  0.000  0.000
    3  0.000  0.000  0.000  0.000
    4  0.000  0.000  0.000  0.000
    5  0.000  0.000  0.000  0.000
    6  0.000  0.000  0.000  0.000
    7  0.000  0.000  0.000  0.000
    8  0.000  0.000  0.000  0.000
    9  0.004  0.001  0.000  0.004
   10  0.004  0.001  0.000  0.006
   11  0.004  0.001  0.000  0.004
   12  0.004  0.001  0.000  0.004
   13  0.013  0.000  0.001  0.014
   14  0.061  0.022  0.026  0.109
   15  0.061  0.022  0.026  0.109
   16  0.061  0.022  0.026  0.109
   17  0.227  0.026  0.000  0.252
   18  0.095  0.076  0.001  0.172
tot    0.535  0.172  0.080  0.787
 
band     3 # energy   -9.23409562 # occ.  2.00000000
 
ion      s      p      d    tot
    1  0.027  0.004  0.000  0.031
    2  0.027  0.004  0.000  0.031
    3  0.027  0.004  0.000  0.031
    4  0.027  0.004  0.000  0.031
    5  0.091  0.000  0.000  0.092
    6  0.091  0.000  0.000  0.092
    7  0.091  0.000  0.000  0.092
    8  0.091  0.000  0.000  0.091
    9  0.077  0.001  0.000  0.079
   10  0.078  0.001  0.000  0.080
   11  0.077  0.001  0.000  0.079
   12  0.077  0.001  0.000  0.079
   13  0.018  0.004  0.000  0.022
   14  0.012  0.005  0.000  0.017
   15  0.012  0.005  0.000  0.017
   16  0.012  0.005  0.000  0.017
   17  0.010  0.002  0.000  0.013
   18  0.011  0.030  0.000  0.041
tot    0.859  0.071  0.003  0.934
 
band     4 # energy   -8.32474491 # occ.  2.00000000
 
ion      s      p      d    tot
    1  0.029  0.002  0.000  0.031
    2  0.029  0.002  0.000  0.031
    3  0.029  0.002  0.000  0.031
    4  0.029  0.002  0.000  0.031
    5  0.027  0.003  0.001  0.030
    6  0.027  0.003  0.001  0.030
    7  0.027  0.003  0.001  0.030
    8  0.027  0.003  0.001  0.030
    9  0.005  0.006  0.000  0.012
   10  0.005  0.007  0.000  0.012
   11  0.005  0.006  0.000  0.012
   12  0.005  0.006  0.000  0.012
   13  0.031  0.000  0.002  0.033
   14  0.048  0.002  0.008  0.058
   15  0.048  0.002  0.008  0.058
   16  0.048  0.002  0.008  0.058
   17  0.006  0.079  0.001  0.086
   18  0.044  0.239  0.003  0.285
tot    0.469  0.368  0.036  0.873
 
band     5 # energy   -7.47759508 # occ.  2.00000000
 
ion      s      p      d    tot
    1  0.052  0.001  0.004  0.057
    2  0.052  0.001  0.004  0.057
    3  0.052  0.001  0.004  0.057
    4  0.052  0.001  0.004  0.057
    5  0.004  0.015  0.000  0.019
    6  0.004  0.015  0.000  0.019
    7  0.004  0.015  0.000  0.019
    8  0.003  0.015  0.000  0.019
    9  0.057  0.001  0.005  0.063
   10  0.050  0.000  0.008  0.058
   11  0.057  0.001  0.005  0.063
   12  0.057  0.001  0.005  0.063
   13  0.016  0.007  0.001  0.023
   14  0.000  0.019  0.025  0.044
   15  0.000  0.019  0.025  0.044
   16  0.000  0.019  0.025  0.044
   17  0.004  0.075  0.001  0.080
   18  0.010  0.113  0.001  0.125
tot    0.476  0.317  0.118  0.911
 
band     6 # energy   -7.39601827 # occ.  2.00000000
 
ion      s      p      d    tot
    1  0.000  0.000  0.000  0.000
    2  0.000  0.000  0.000  0.000
    3  0.000  0.000  0.000  0.000
    4  0.000  0.000  0.000  0.000
    5  0.000  0.000  0.000  0.000
    6  0.000  0.000  0.000  0.000
    7  0.000  0.000  0.000  0.000
    8  0.000  0.000  0.000  0.000
    9  0.000  0.000  0.000  0.001
   10  0.000  0.000  0.000  0.000
   11  0.000  0.000  0.000  0.001
   12  0.000  0.000  0.000  0.001
   13  0.000  0.001  0.004  0.005
   14  0.005  0.004  0.020  0.029
   15  0.005  0.004  0.020  0.029
   16  0.018  0.010  0.024  0.052
   17  0.000  0.175  0.004  0.179
   18  0.000  0.366  0.005  0.371
tot    0.028  0.560  0.079  0.668
 
band     7 # energy   -7.39541281 # occ.  2.00000000
 
ion      s      p      d    tot
    1  0.000  0.000  0.000  0.000
    2  0.000  0.000  0.000  0.000
    3  0.000  0.000  0.000  0.000
    4  0.000  0.000  0.000  0.000
    5  0.000  0.000  0.000  0.000
    6  0.000  0.000  0.000  0.000
    7  0.000  0.000  0.000  0.000
    8  0.000  0.000  0.000  0.000
    9  0.000  0.000  0.000  0.001
   10  0.000  0.000  0.000  0.000
   11  0.000  0.000  0.001  0.001
   12  0.000  0.000  0.000  0.001
   13  0.000  0.001  0.004  0.005
   14  0.014  0.008  0.023  0.045
   15  0.014  0.008  0.023  0.044
   16  0.000  0.002  0.019  0.021
   17  0.000  0.175  0.004  0.179
   18  0.000  0.366  0.005  0.371
tot    0.028  0.560  0.079  0.668
 
band     8 # energy   -6.12345251 # occ.  2.00000000
 
ion      s      p      d    tot
    1  0.046  0.001  0.026  0.074
    2  0.048  0.001  0.026  0.074
    3  0.048  0.001  0.026  0.074
    4  0.048  0.001  0.026  0.074
    5  0.027  0.008  0.022  0.057
    6  0.027  0.008  0.022  0.057
    7  0.027  0.008  0.022  0.057
    8  0.023  0.007  0.023  0.053
    9  0.000  0.017  0.002  0.019
   10  0.001  0.015  0.000  0.016
   11  0.000  0.017  0.002  0.019
   12  0.000  0.017  0.002  0.019
   13  0.076  0.001  0.011  0.088
   14  0.020  0.007  0.048  0.075
   15  0.020  0.007  0.048  0.075
   16  0.020  0.007  0.048  0.075
   17  0.007  0.017  0.000  0.023
   18  0.000  0.013  0.000  0.013
tot    0.438  0.149  0.355  0.941
 
band     9 # energy   -5.52859268 # occ.  2.00000000
 
ion      s      p      d    tot
    1  0.008  0.001  0.014  0.023
    2  0.008  0.001  0.015  0.024
    3  0.008  0.001  0.015  0.024
    4  0.008  0.001  0.015  0.024
    5  0.011  0.000  0.045  0.057
    6  0.011  0.000  0.045  0.057
    7  0.011  0.000  0.045  0.057
    8  0.017  0.000  0.040  0.057
    9  0.018  0.001  0.063  0.082
   10  0.015  0.000  0.044  0.059
   11  0.018  0.001  0.063  0.082
   12  0.018  0.001  0.063  0.082
   13  0.050  0.001  0.035  0.086
   14  0.011  0.001  0.075  0.087
   15  0.011  0.001  0.075  0.087
   16  0.011  0.001  0.075  0.087
   17  0.002  0.003  0.000  0.005
   18  0.000  0.002  0.000  0.002
tot    0.236  0.017  0.728  0.982
 
band    10 # energy   -5.32661586 # occ.  2.00000000
 
ion      s      p      d    tot
    1  0.011  0.003  0.005  0.019
    2  0.001  0.002  0.017  0.020
    3  0.001  0.002  0.017  0.020
    4  0.001  0.002  0.017  0.020
    5  0.005  0.001  0.103  0.109
    6  0.005  0.001  0.102  0.109
    7  0.005  0.001  0.103  0.109
    8  0.055  0.001  0.013  0.069
    9  0.008  0.001  0.090  0.098
   10  0.066  0.000  0.025  0.092
   11  0.008  0.001  0.090  0.098
   12  0.008  0.001  0.090  0.098
   13  0.008  0.002  0.007  0.017
   14  0.002  0.002  0.036  0.040
   15  0.002  0.002  0.036  0.040
   16  0.002  0.002  0.036  0.040
   17  0.000  0.000  0.000  0.000
   18  0.000  0.001  0.000  0.001
tot    0.188  0.025  0.788  1.000
 
band    11 # energy   -5.31135022 # occ.  2.00000000
 
ion      s      p      d    tot
    1  0.000  0.002  0.021  0.023
    2  0.000  0.002  0.021  0.023
    3  0.005  0.002  0.014  0.021
    4  0.008  0.003  0.009  0.020
    5  0.051  0.001  0.034  0.086
    6  0.030  0.001  0.069  0.099
    7  0.003  0.001  0.114  0.117
    8  0.000  0.001  0.116  0.116
    9  0.002  0.001  0.089  0.092
   10  0.000  0.001  0.090  0.091
   11  0.044  0.000  0.036  0.081
   12  0.026  0.001  0.059  0.086
   13  0.000  0.002  0.030  0.032
   14  0.001  0.002  0.040  0.042
   15  0.006  0.002  0.023  0.031
   16  0.011  0.003  0.009  0.023
   17  0.000  0.000  0.000  0.001
   18  0.000  0.010  0.000  0.010
tot    0.188  0.035  0.773  0.996
 
band    12 # energy   -5.31133757 # occ.  2.00000000
 
ion      s      p      d    tot
    1  0.000  0.002  0.021  0.023
    2  0.009  0.003  0.008  0.020
    3  0.004  0.002  0.015  0.022
    4  0.001  0.002  0.020  0.023
    5  0.005  0.001  0.110  0.116
    6  0.026  0.001  0.075  0.102
    7  0.053  0.001  0.031  0.084
    8  0.000  0.001  0.116  0.116
    9  0.046  0.000  0.034  0.081
   10  0.000  0.001  0.090  0.091
   11  0.004  0.001  0.087  0.092
   12  0.023  0.001  0.064  0.087
   13  0.000  0.002  0.030  0.032
   14  0.011  0.003  0.008  0.022
   15  0.005  0.002  0.025  0.033
   16  0.001  0.002  0.038  0.041
   17  0.000  0.000  0.000  0.001
   18  0.000  0.010  0.000  0.010
tot    0.188  0.035  0.773  0.996
 
band    13 # energy   -5.18037095 # occ.  2.00000000
 
ion      s      p      d    tot
    1  0.000  0.003  0.023  0.026
    2  0.001  0.002  0.016  0.018
    3  0.002  0.000  0.003  0.005
    4  0.000  0.002  0.020  0.023
    5  0.002  0.001  0.113  0.117
    6  0.016  0.000  0.017  0.033
    7  0.006  0.001  0.088  0.095
    8  0.000  0.001  0.127  0.128
    9  0.010  0.001  0.094  0.104
   10  0.000  0.001  0.135  0.136
   11  0.004  0.001  0.121  0.125
   12  0.026  0.000  0.017  0.044
   13  0.000  0.005  0.033  0.038
   14  0.000  0.002  0.028  0.030
   15  0.001  0.000  0.006  0.008
   16  0.000  0.003  0.035  0.038
   17  0.000  0.000  0.000  0.000
   18  0.000  0.000  0.000  0.000
tot    0.069  0.024  0.877  0.970
 
band    14 # energy   -5.18035313 # occ.  2.00000000
 
ion      s      p      d    tot
    1  0.000  0.003  0.023  0.026
    2  0.001  0.001  0.010  0.013
    3  0.000  0.003  0.023  0.025
    4  0.001  0.001  0.006  0.008
    5  0.014  0.000  0.032  0.047
    6  0.000  0.002  0.129  0.131
    7  0.010  0.001  0.057  0.068
    8  0.000  0.001  0.127  0.128
    9  0.017  0.000  0.061  0.078
   10  0.000  0.001  0.135  0.136
   11  0.023  0.000  0.034  0.057
   12  0.000  0.001  0.137  0.138
   13  0.000  0.005  0.033  0.038
   14  0.001  0.001  0.018  0.021
   15  0.000  0.003  0.040  0.043
   16  0.001  0.001  0.011  0.013
   17  0.000  0.000  0.000  0.000
   18  0.000  0.000  0.000  0.000
tot    0.069  0.024  0.877  0.970
 
band    15 # energy   -5.14843554 # occ.  2.00000000
 
ion      s      p      d    tot
    1  0.001  0.000  0.002  0.003
    2  0.000  0.004  0.028  0.032
    3  0.000  0.004  0.028  0.032
    4  0.000  0.004  0.028  0.032
    5  0.005  0.001  0.148  0.153
    6  0.005  0.001  0.148  0.153
    7  0.005  0.001  0.148  0.153
    8  0.036  0.000  0.000  0.036
    9  0.001  0.003  0.092  0.097
   10  0.022  0.000  0.001  0.024
   11  0.001  0.003  0.092  0.097
   12  0.001  0.003  0.092  0.097
   13  0.003  0.000  0.001  0.004
   14  0.000  0.005  0.013  0.018
   15  0.000  0.005  0.013  0.018
   16  0.000  0.005  0.013  0.018
   17  0.001  0.001  0.000  0.002
   18  0.000  0.000  0.000  0.000
tot    0.081  0.039  0.850  0.969
 
band    16 # energy   -4.93085214 # occ.  2.00000000
 
ion      s      p      d    tot
    1  0.000  0.001  0.012  0.014
    2  0.001  0.001  0.007  0.009
    3  0.000  0.001  0.012  0.013
    4  0.002  0.001  0.004  0.006
    5  0.013  0.000  0.008  0.022
    6  0.001  0.000  0.039  0.040
    7  0.007  0.000  0.022  0.030
    8  0.000  0.000  0.039  0.039
    9  0.000  0.006  0.008  0.014
   10  0.000  0.006  0.005  0.012
   11  0.000  0.005  0.010  0.015
   12  0.000  0.006  0.007  0.013
   13  0.000  0.000  0.176  0.176
   14  0.021  0.001  0.155  0.177
   15  0.002  0.000  0.276  0.278
   16  0.037  0.001  0.056  0.094
   17  0.000  0.000  0.001  0.001
   18  0.000  0.023  0.000  0.023
tot    0.085  0.053  0.838  0.975
 
band    17 # energy   -4.93082572 # occ.  2.00000000
 
ion      s      p      d    tot
    1  0.000  0.001  0.012  0.014
    2  0.001  0.001  0.008  0.010
    3  0.002  0.001  0.003  0.006
    4  0.000  0.001  0.012  0.013
    5  0.001  0.000  0.038  0.039
    6  0.013  0.000  0.007  0.021
    7  0.007  0.000  0.024  0.031
    8  0.000  0.000  0.039  0.039
    9  0.000  0.006  0.008  0.014
   10  0.000  0.006  0.005  0.012
   11  0.000  0.006  0.007  0.013
   12  0.000  0.005  0.010  0.015
   13  0.000  0.000  0.176  0.176
   14  0.019  0.000  0.169  0.189
   15  0.038  0.001  0.049  0.088
   16  0.003  0.000  0.268  0.272
   17  0.000  0.000  0.001  0.001
   18  0.000  0.023  0.000  0.023
tot    0.085  0.053  0.838  0.975
 
band    18 # energy   -4.81401217 # occ.  2.00000000
 
ion      s      p      d    tot
    1  0.045  0.004  0.001  0.050
    2  0.005  0.001  0.108  0.114
    3  0.005  0.001  0.108  0.114
    4  0.005  0.001  0.108  0.114
    5  0.000  0.004  0.061  0.066
    6  0.000  0.004  0.061  0.066
    7  0.000  0.004  0.061  0.066
    8  0.004  0.003  0.000  0.007
    9  0.001  0.001  0.020  0.022
   10  0.005  0.008  0.000  0.014
   11  0.001  0.001  0.020  0.022
   12  0.001  0.001  0.020  0.022
   13  0.012  0.001  0.001  0.013
   14  0.003  0.001  0.092  0.096
   15  0.003  0.001  0.092  0.096
   16  0.003  0.001  0.092  0.096
   17  0.001  0.002  0.000  0.003
   18  0.000  0.003  0.000  0.003
tot    0.092  0.040  0.848  0.980
 
band    19 # energy   -4.79398884 # occ.  2.00000000
 
ion      s      p      d    tot
    1  0.000  0.001  0.010  0.011
    2  0.000  0.001  0.011  0.011
    3  0.000  0.001  0.011  0.011
    4  0.000  0.001  0.011  0.011
    5  0.000  0.000  0.056  0.056
    6  0.000  0.000  0.056  0.056
    7  0.000  0.000  0.056  0.056
    8  0.000  0.001  0.070  0.071
    9  0.000  0.000  0.125  0.125
   10  0.001  0.000  0.080  0.081
   11  0.000  0.000  0.124  0.125
   12  0.000  0.000  0.124  0.125
   13  0.000  0.003  0.034  0.037
   14  0.000  0.000  0.074  0.074
   15  0.000  0.000  0.074  0.074
   16  0.000  0.000  0.074  0.074
   17  0.000  0.001  0.000  0.001
   18  0.000  0.001  0.000  0.001
tot    0.003  0.010  0.988  1.001
 
band    20 # energy   -4.78450306 # occ.  2.00000000
 
ion      s      p      d    tot
    1  0.000  0.001  0.050  0.050
    2  0.015  0.003  0.024  0.042
    3  0.018  0.003  0.019  0.040
    4  0.000  0.001  0.050  0.051
    5  0.000  0.003  0.102  0.104
    6  0.000  0.003  0.052  0.056
    7  0.000  0.003  0.060  0.064
    8  0.000  0.003  0.099  0.102
    9  0.004  0.001  0.081  0.086
   10  0.000  0.000  0.128  0.128
   11  0.000  0.000  0.137  0.137
   12  0.005  0.001  0.070  0.076
   13  0.000  0.000  0.002  0.002
   14  0.001  0.001  0.020  0.023
   15  0.001  0.002  0.024  0.027
   16  0.000  0.000  0.003  0.003
   17  0.000  0.000  0.000  0.000
   18  0.000  0.001  0.000  0.001
tot    0.046  0.026  0.922  0.994
 
band    21 # energy   -4.78442532 # occ.  2.00000000
 
ion      s      p      d    tot
    1  0.000  0.001  0.050  0.051
    2  0.007  0.002  0.038  0.047
    3  0.004  0.001  0.044  0.049
    4  0.022  0.004  0.012  0.038
    5  0.000  0.004  0.041  0.045
    6  0.000  0.003  0.091  0.094
    7  0.000  0.003  0.082  0.085
    8  0.000  0.003  0.099  0.102
    9  0.002  0.001  0.111  0.113
   10  0.000  0.000  0.128  0.128
   11  0.006  0.002  0.055  0.063
   12  0.001  0.000  0.122  0.123
   13  0.000  0.000  0.002  0.002
   14  0.001  0.001  0.011  0.012
   15  0.000  0.000  0.008  0.009
   16  0.002  0.002  0.028  0.032
   17  0.000  0.000  0.000  0.000
   18  0.000  0.001  0.000  0.001
tot    0.046  0.026  0.922  0.994
 
band    22 # energy   -4.75272359 # occ.  2.00000000
 
ion      s      p      d    tot
    1  0.000  0.000  0.170  0.170
    2  0.021  0.000  0.067  0.088
    3  0.021  0.000  0.066  0.087
    4  0.000  0.000  0.173  0.173
    5  0.000  0.007  0.034  0.040
    6  0.000  0.002  0.050  0.053
    7  0.000  0.002  0.050  0.053
    8  0.000  0.007  0.033  0.039
    9  0.003  0.000  0.032  0.035
   10  0.000  0.000  0.037  0.038
   11  0.000  0.001  0.041  0.042
   12  0.003  0.000  0.032  0.035
   13  0.000  0.003  0.031  0.034
   14  0.001  0.001  0.021  0.023
   15  0.001  0.001  0.021  0.022
   16  0.000  0.002  0.048  0.050
   17  0.000  0.000  0.000  0.000
   18  0.000  0.001  0.000  0.001
tot    0.050  0.028  0.905  0.983
 
band    23 # energy   -4.75267907 # occ.  2.00000000
 
ion      s      p      d    tot
    1  0.000  0.000  0.170  0.170
    2  0.007  0.000  0.137  0.144
    3  0.007  0.000  0.138  0.145
    4  0.028  0.000  0.031  0.059
    5  0.000  0.001  0.056  0.057
    6  0.000  0.005  0.039  0.045
    7  0.000  0.005  0.039  0.045
    8  0.000  0.007  0.033  0.040
    9  0.001  0.001  0.038  0.040
   10  0.000  0.000  0.037  0.038
   11  0.004  0.000  0.029  0.033
   12  0.001  0.001  0.038  0.040
   13  0.000  0.003  0.031  0.034
   14  0.000  0.002  0.039  0.040
   15  0.000  0.002  0.039  0.041
   16  0.001  0.001  0.012  0.014
   17  0.000  0.000  0.000  0.000
   18  0.000  0.001  0.000  0.001
tot    0.050  0.028  0.906  0.983
 
band    24 # energy   -4.68023212 # occ.  2.00000000
 
ion      s      p      d    tot
    1  0.016  0.000  0.018  0.033
    2  0.002  0.000  0.102  0.104
    3  0.002  0.000  0.102  0.104
    4  0.002  0.000  0.102  0.104
    5  0.000  0.004  0.033  0.038
    6  0.000  0.004  0.033  0.038
    7  0.000  0.004  0.033  0.038
    8  0.000  0.000  0.036  0.036
    9  0.000  0.000  0.048  0.049
   10  0.006  0.004  0.002  0.011
   11  0.000  0.000  0.048  0.049
   12  0.000  0.000  0.048  0.049
   13  0.006  0.000  0.000  0.006
   14  0.004  0.009  0.087  0.099
   15  0.004  0.009  0.087  0.099
   16  0.004  0.009  0.087  0.099
   17  0.003  0.007  0.001  0.011
   18  0.000  0.007  0.000  0.007
tot    0.048  0.058  0.867  0.974
 
band    25 # energy   -4.43617858 # occ.  2.00000000
 
ion      s      p      d    tot
    1  0.000  0.003  0.103  0.106
    2  0.000  0.002  0.060  0.062
    3  0.000  0.002  0.058  0.061
    4  0.000  0.003  0.105  0.109
    5  0.000  0.001  0.064  0.065
    6  0.001  0.004  0.043  0.049
    7  0.001  0.004  0.044  0.049
    8  0.000  0.001  0.062  0.063
    9  0.000  0.007  0.016  0.023
   10  0.000  0.008  0.031  0.039
   11  0.000  0.008  0.037  0.045
   12  0.000  0.007  0.015  0.022
   13  0.000  0.002  0.055  0.057
   14  0.001  0.002  0.059  0.062
   15  0.001  0.002  0.057  0.060
   16  0.000  0.001  0.106  0.107
   17  0.000  0.000  0.000  0.000
   18  0.000  0.002  0.000  0.002
tot    0.006  0.060  0.916  0.982
 
band    26 # energy   -4.43613988 # occ.  2.00000000
 
ion      s      p      d    tot
    1  0.000  0.003  0.103  0.106
    2  0.000  0.003  0.089  0.092
    3  0.000  0.003  0.091  0.094
    4  0.001  0.002  0.043  0.046
    5  0.001  0.005  0.037  0.044
    6  0.000  0.002  0.058  0.060
    7  0.000  0.002  0.057  0.059
    8  0.000  0.001  0.062  0.063
    9  0.000  0.008  0.029  0.037
   10  0.000  0.008  0.031  0.039
   11  0.000  0.006  0.009  0.015
   12  0.000  0.008  0.030  0.038
   13  0.000  0.002  0.055  0.057
   14  0.000  0.001  0.089  0.091
   15  0.000  0.001  0.091  0.092
   16  0.002  0.002  0.042  0.046
   17  0.000  0.000  0.000  0.000
   18  0.000  0.002  0.000  0.002
tot    0.006  0.060  0.916  0.982
 
band    27 # energy   -4.36781940 # occ.  2.00000000
 
ion      s      p      d    tot
    1  0.000  0.001  0.024  0.025
    2  0.000  0.004  0.107  0.111
    3  0.000  0.004  0.107  0.111
    4  0.000  0.004  0.107  0.111
    5  0.000  0.005  0.043  0.049
    6  0.000  0.005  0.043  0.049
    7  0.000  0.005  0.043  0.049
    8  0.002  0.009  0.021  0.032
    9  0.000  0.008  0.082  0.090
   10  0.000  0.001  0.000  0.001
   11  0.000  0.008  0.082  0.090
   12  0.000  0.008  0.082  0.090
   13  0.003  0.002  0.042  0.046
   14  0.002  0.014  0.020  0.037
   15  0.002  0.014  0.020  0.037
   16  0.002  0.014  0.020  0.037
   17  0.003  0.004  0.000  0.007
   18  0.000  0.002  0.000  0.002
tot    0.015  0.115  0.845  0.975
 
band    28 # energy   -3.94909492 # occ.  2.00000000
 
ion      s      p      d    tot
    1  0.000  0.001  0.094  0.095
    2  0.000  0.000  0.051  0.052
    3  0.000  0.000  0.018  0.018
    4  0.000  0.001  0.091  0.092
    5  0.000  0.007  0.009  0.016
    6  0.000  0.007  0.008  0.015
    7  0.000  0.007  0.008  0.016
    8  0.000  0.008  0.010  0.017
    9  0.000  0.004  0.041  0.045
   10  0.000  0.002  0.054  0.056
   11  0.000  0.002  0.059  0.061
   12  0.000  0.006  0.026  0.032
   13  0.000  0.000  0.058  0.058
   14  0.000  0.000  0.123  0.123
   15  0.000  0.000  0.109  0.110
   16  0.000  0.000  0.139  0.139
   17  0.000  0.000  0.001  0.001
   18  0.000  0.019  0.000  0.019
tot    0.002  0.064  0.899  0.965
 
band    29 # energy   -3.94908905 # occ.  2.00000000
 
ion      s      p      d    tot
    1  0.000  0.001  0.094  0.095
    2  0.000  0.001  0.056  0.056
    3  0.000  0.001  0.089  0.090
    4  0.000  0.000  0.016  0.016
    5  0.000  0.007  0.008  0.015
    6  0.000  0.007  0.009  0.016
    7  0.000  0.007  0.008  0.016
    8  0.000  0.008  0.010  0.017
    9  0.000  0.004  0.043  0.047
   10  0.000  0.002  0.054  0.056
   11  0.000  0.006  0.025  0.031
   12  0.000  0.002  0.058  0.060
   13  0.000  0.000  0.058  0.058
   14  0.000  0.000  0.124  0.125
   15  0.000  0.000  0.138  0.138
   16  0.000  0.000  0.109  0.109
   17  0.000  0.000  0.001  0.001
   18  0.000  0.019  0.000  0.019
tot    0.002  0.064  0.899  0.965
 
band    30 # energy   -3.86815111 # occ.  2.00000000
 
ion      s      p      d    tot
    1  0.000  0.001  0.018  0.019
    2  0.000  0.000  0.017  0.018
    3  0.000  0.000  0.017  0.018
    4  0.000  0.000  0.017  0.018
    5  0.001  0.000  0.028  0.029
    6  0.001  0.000  0.028  0.029
    7  0.001  0.000  0.028  0.029
    8  0.000  0.002  0.005  0.007
    9  0.000  0.003  0.016  0.019
   10  0.000  0.016  0.075  0.092
   11  0.000  0.003  0.016  0.019
   12  0.000  0.003  0.016  0.019
   13  0.000  0.000  0.019  0.020
   14  0.003  0.001  0.205  0.208
   15  0.003  0.001  0.205  0.208
   16  0.003  0.001  0.205  0.208
   17  0.000  0.001  0.001  0.002
   18  0.000  0.003  0.000  0.003
tot    0.012  0.037  0.918  0.968
 
band    31 # energy   -3.75465965 # occ.  2.00000000
 
ion      s      p      d    tot
    1  0.000  0.000  0.000  0.001
    2  0.000  0.001  0.126  0.126
    3  0.000  0.001  0.126  0.126
    4  0.000  0.001  0.126  0.126
    5  0.000  0.004  0.061  0.065
    6  0.000  0.004  0.061  0.065
    7  0.000  0.004  0.061  0.065
    8  0.000  0.009  0.042  0.052
    9  0.000  0.007  0.038  0.045
   10  0.000  0.002  0.090  0.092
   11  0.000  0.007  0.037  0.045
   12  0.000  0.007  0.038  0.045
   13  0.000  0.002  0.005  0.007
   14  0.000  0.007  0.029  0.037
   15  0.000  0.007  0.029  0.037
   16  0.000  0.007  0.029  0.037
   17  0.002  0.002  0.000  0.004
   18  0.000  0.001  0.000  0.001
tot    0.005  0.072  0.898  0.975
 
band    32 # energy   -3.70080097 # occ.  2.00000000
 
ion      s      p      d    tot
    1  0.000  0.000  0.015  0.015
    2  0.000  0.000  0.007  0.007
    3  0.000  0.000  0.006  0.007
    4  0.000  0.000  0.021  0.021
    5  0.000  0.001  0.054  0.055
    6  0.000  0.000  0.036  0.037
    7  0.000  0.000  0.037  0.037
    8  0.000  0.001  0.018  0.019
    9  0.001  0.000  0.081  0.082
   10  0.000  0.000  0.008  0.008
   11  0.000  0.000  0.073  0.073
   12  0.001  0.000  0.082  0.082
   13  0.000  0.001  0.086  0.087
   14  0.000  0.001  0.153  0.154
   15  0.000  0.001  0.154  0.154
   16  0.000  0.000  0.147  0.147
   17  0.000  0.000  0.000  0.001
   18  0.000  0.003  0.000  0.003
tot    0.002  0.009  0.979  0.990
 
band    33 # energy   -3.70067424 # occ.  2.00000000
 
ion      s      p      d    tot
    1  0.000  0.000  0.015  0.015
    2  0.000  0.000  0.016  0.016
    3  0.000  0.000  0.017  0.017
    4  0.000  0.000  0.001  0.002
    5  0.000  0.000  0.031  0.031
    6  0.000  0.001  0.049  0.049
    7  0.000  0.001  0.048  0.049
    8  0.000  0.001  0.018  0.019
    9  0.000  0.000  0.076  0.076
   10  0.000  0.000  0.008  0.008
   11  0.001  0.000  0.085  0.086
   12  0.000  0.000  0.076  0.076
   13  0.000  0.001  0.086  0.087
   14  0.000  0.001  0.149  0.149
   15  0.000  0.001  0.149  0.149
   16  0.000  0.001  0.156  0.157
   17  0.000  0.000  0.000  0.001
   18  0.000  0.003  0.000  0.003
tot    0.002  0.009  0.979  0.990
 
band    34 # energy   -3.67366283 # occ.  2.00000000
 
ion      s      p      d    tot
    1  0.000  0.000  0.060  0.060
    2  0.000  0.000  0.039  0.039
    3  0.000  0.000  0.032  0.032
    4  0.000  0.000  0.066  0.066
    5  0.000  0.001  0.049  0.050
    6  0.000  0.002  0.055  0.057
    7  0.000  0.002  0.054  0.055
    8  0.000  0.001  0.048  0.049
    9  0.000  0.002  0.048  0.050
   10  0.000  0.002  0.045  0.047
   11  0.000  0.002  0.011  0.013
   12  0.000  0.002  0.057  0.059
   13  0.000  0.001  0.079  0.080
   14  0.000  0.000  0.130  0.130
   15  0.000  0.000  0.158  0.158
   16  0.000  0.000  0.019  0.020
   17  0.000  0.001  0.001  0.002
   18  0.000  0.014  0.000  0.014
tot    0.001  0.030  0.950  0.981
 
band    35 # energy   -3.67360291 # occ.  2.00000000
 
ion      s      p      d    tot
    1  0.000  0.000  0.060  0.060
    2  0.000  0.000  0.052  0.052
    3  0.000  0.000  0.059  0.059
    4  0.000  0.000  0.025  0.025
    5  0.000  0.002  0.056  0.058
    6  0.000  0.001  0.050  0.051
    7  0.000  0.001  0.051  0.053
    8  0.000  0.001  0.048  0.049
    9  0.000  0.002  0.029  0.031
   10  0.000  0.002  0.045  0.047
   11  0.000  0.002  0.066  0.068
   12  0.000  0.002  0.020  0.022
   13  0.000  0.001  0.080  0.080
   14  0.000  0.000  0.075  0.075
   15  0.000  0.000  0.047  0.048
   16  0.000  0.000  0.185  0.186
   17  0.000  0.001  0.001  0.002
   18  0.000  0.014  0.000  0.014
tot    0.001  0.030  0.950  0.981
 
band    36 # energy   -3.65060322 # occ.  2.00000000
 
ion      s      p      d    tot
    1  0.000  0.000  0.010  0.010
    2  0.001  0.000  0.013  0.014
    3  0.001  0.000  0.013  0.014
    4  0.001  0.000  0.013  0.014
    5  0.000  0.002  0.049  0.051
    6  0.000  0.002  0.049  0.051
    7  0.000  0.002  0.049  0.051
    8  0.001  0.005  0.197  0.203
    9  0.001  0.002  0.168  0.170
   10  0.000  0.001  0.006  0.006
   11  0.001  0.002  0.168  0.170
   12  0.001  0.002  0.168  0.170
   13  0.000  0.002  0.009  0.011
   14  0.000  0.001  0.015  0.016
   15  0.000  0.001  0.015  0.016
   16  0.000  0.001  0.015  0.016
   17  0.000  0.000  0.000  0.001
   18  0.000  0.000  0.000  0.000
tot    0.007  0.025  0.956  0.987
 
band    37 # energy   -3.59089414 # occ.  2.00000000
 
ion      s      p      d    tot
    1  0.000  0.002  0.089  0.091
    2  0.000  0.002  0.078  0.080
    3  0.000  0.002  0.078  0.080
    4  0.000  0.002  0.078  0.080
    5  0.001  0.001  0.123  0.125
    6  0.001  0.001  0.123  0.125
    7  0.001  0.001  0.123  0.125
    8  0.000  0.003  0.026  0.030
    9  0.001  0.002  0.023  0.026
   10  0.000  0.000  0.074  0.075
   11  0.001  0.002  0.023  0.026
   12  0.001  0.002  0.023  0.026
   13  0.000  0.002  0.008  0.010
   14  0.000  0.004  0.024  0.028
   15  0.000  0.004  0.024  0.028
   16  0.000  0.004  0.024  0.028
   17  0.001  0.002  0.000  0.003
   18  0.000  0.002  0.000  0.002
tot    0.007  0.037  0.942  0.987
 
band    38 # energy   -3.54941096 # occ.  2.00000000
 
ion      s      p      d    tot
    1  0.000  0.000  0.017  0.017
    2  0.000  0.000  0.008  0.009
    3  0.000  0.000  0.009  0.009
    4  0.000  0.000  0.013  0.013
    5  0.000  0.000  0.118  0.119
    6  0.000  0.001  0.192  0.193
    7  0.000  0.001  0.198  0.199
    8  0.000  0.000  0.193  0.193
    9  0.000  0.000  0.005  0.006
   10  0.000  0.002  0.110  0.112
   11  0.000  0.001  0.012  0.013
   12  0.000  0.001  0.006  0.006
   13  0.000  0.000  0.013  0.013
   14  0.001  0.000  0.041  0.041
   15  0.000  0.000  0.038  0.039
   16  0.000  0.000  0.005  0.005
   17  0.000  0.000  0.000  0.000
   18  0.000  0.004  0.000  0.004
tot    0.001  0.011  0.979  0.991
 
band    39 # energy   -3.54930780 # occ.  2.00000000
 
ion      s      p      d    tot
    1  0.000  0.000  0.017  0.017
    2  0.000  0.000  0.012  0.012
    3  0.000  0.000  0.012  0.012
    4  0.000  0.000  0.007  0.007
    5  0.000  0.001  0.221  0.222
    6  0.000  0.000  0.146  0.147
    7  0.000  0.000  0.141  0.141
    8  0.000  0.000  0.193  0.193
    9  0.000  0.001  0.010  0.011
   10  0.000  0.002  0.110  0.112
   11  0.000  0.000  0.003  0.004
   12  0.000  0.001  0.009  0.010
   13  0.000  0.000  0.013  0.013
   14  0.000  0.000  0.016  0.016
   15  0.000  0.000  0.018  0.018
   16  0.001  0.000  0.051  0.052
   17  0.000  0.000  0.000  0.000
   18  0.000  0.004  0.000  0.004
tot    0.001  0.011  0.979  0.991
 
band    40 # energy   -3.53366897 # occ.  2.00000000
 
ion      s      p      d    tot
    1  0.000  0.000  0.000  0.000
    2  0.000  0.000  0.014  0.014
    3  0.000  0.000  0.014  0.015
    4  0.000  0.000  0.014  0.014
    5  0.000  0.000  0.085  0.085
    6  0.000  0.000  0.085  0.085
    7  0.000  0.000  0.085  0.085
    8  0.000  0.000  0.000  0.000
    9  0.000  0.000  0.127  0.127
   10  0.000  0.000  0.000  0.000
   11  0.000  0.000  0.127  0.127
   12  0.000  0.000  0.127  0.127
   13  0.000  0.000  0.000  0.000
   14  0.000  0.000  0.104  0.104
   15  0.000  0.000  0.104  0.104
   16  0.000  0.000  0.103  0.104
   17  0.000  0.000  0.000  0.000
   18  0.000  0.000  0.000  0.000
tot    0.000  0.001  0.989  0.990
 
band    41 # energy   -3.52436202 # occ.  2.00000000
 
ion      s      p      d    tot
    1  0.000  0.000  0.002  0.002
    2  0.000  0.000  0.031  0.031
    3  0.000  0.000  0.031  0.031
    4  0.000  0.000  0.030  0.030
    5  0.000  0.002  0.066  0.068
    6  0.001  0.002  0.082  0.085
    7  0.001  0.002  0.082  0.084
    8  0.000  0.003  0.027  0.030
    9  0.000  0.002  0.080  0.082
   10  0.000  0.004  0.113  0.117