<?xml version="1.0" encoding="ISO-8859-1"?>
<modeling>
 <generator>
  <i name="program" type="string">vasp </i>
  <i name="version" type="string">5.4.4.18Apr17-6-g9f103f2a35  </i>
  <i name="subversion" type="string">(build Aug 07 2018 15:16:41) complex            parallel </i>
  <i name="platform" type="string">LinuxIFC </i>
  <i name="date" type="string">2019 10 18 </i>
  <i name="time" type="string">01:18:28 </i>
 </generator>
 <incar>
  <i type="string" name="PREC">normal</i>
  <i type="int" name="IBRION">     2</i>
  <i name="EDIFFG">     -0.03000000</i>
  <i type="int" name="NSW">     0</i>
  <i type="int" name="ISIF">     0</i>
  <i type="int" name="ISYM">     0</i>
  <i name="ENCUT">    350.00000000</i>
  <v name="RWIGS">      1.50000000      0.80000000      0.80000000</v>
  <i type="string" name="LREAL"> Auto</i>
  <i type="logical" name="LWAVE"> F  </i>
  <i type="logical" name="LCHARG"> F  </i>
  <i type="int" name="LORBIT">     0</i>
  <v type="int" name="KPOINT_BSE">    -1     0     0     0</v>
  <i type="string" name="GGA"> RP</i>
 </incar>
 <structure name="primitive_cell" >
  <crystal>
   <varray name="basis" >
    <v>       5.19996363       0.00000000       0.00000000 </v>
    <v>       2.59998182       4.50330060       0.00000000 </v>
    <v>       0.00000000       0.00000000      26.36862879 </v>
   </varray>
   <i name="volume">    617.47416323 </i>
   <varray name="rec_basis" >
    <v>       0.19230904      -0.11102967       0.00000000 </v>
    <v>       0.00000000       0.22205935       0.00000000 </v>
    <v>       0.00000000       0.00000000       0.03792385 </v>
   </varray>
  </crystal>
  <varray name="positions" >
   <v>       0.00000000       0.00000000       0.37923853 </v>
   <v>       0.16666667       0.16666667       0.45974618 </v>
   <v>       0.00000000      -0.50000000       0.37923853 </v>
   <v>      -0.50000000      -0.50000000       0.37923853 </v>
   <v>      -0.50000000       0.00000000       0.37923853 </v>
   <v>       0.16666667      -0.33333333       0.45974618 </v>
   <v>      -0.33333333       0.16666667       0.45974618 </v>
   <v>      -0.33333333      -0.33333333       0.45974618 </v>
   <v>      -0.16750999      -0.16750998      -0.46018243 </v>
   <v>      -0.16752223       0.33503337      -0.46018265 </v>
   <v>       0.33503333      -0.16752221      -0.46018265 </v>
   <v>       0.33333139       0.33333139      -0.46213648 </v>
   <v>       0.00000232       0.00000238      -0.38288142 </v>
   <v>      -0.49933021      -0.00133705      -0.37893142 </v>
   <v>      -0.00133700      -0.49933022      -0.37893142 </v>
   <v>      -0.49933031      -0.49933030      -0.37892746 </v>
   <v>       0.33332688       0.33332666      -0.32500486 </v>
   <v>       0.33331476       0.33331424      -0.27998473 </v>
  </varray>
 </structure>
 <varray name="primitive_index" >
  <v type="int" >        1 </v>
  <v type="int" >        5 </v>
  <v type="int" >        3 </v>
  <v type="int" >        4 </v>
  <v type="int" >        2 </v>
  <v type="int" >        7 </v>
  <v type="int" >        6 </v>
  <v type="int" >        8 </v>
  <v type="int" >       11 </v>
  <v type="int" >        9 </v>
  <v type="int" >       12 </v>
  <v type="int" >       10 </v>
  <v type="int" >       13 </v>
  <v type="int" >       14 </v>
  <v type="int" >       15 </v>
  <v type="int" >       16 </v>
  <v type="int" >       17 </v>
  <v type="int" >       18 </v>
 </varray>
 <kpoints>
  <generation param="Monkhorst-Pack">
   <v type="int" name="divisions">       5        5        1 </v>
   <v name="usershift">      0.00000000       0.00000000       0.00000000 </v>
   <v name="genvec1">      0.20000000       0.00000000       0.00000000 </v>
   <v name="genvec2">      0.00000000       0.20000000       0.00000000 </v>
   <v name="genvec3">      0.00000000       0.00000000       1.00000000 </v>
   <v name="shift">      0.00000000       0.00000000       0.00000000 </v>
  </generation>
  <varray name="kpointlist" >
   <v>       0.00000000       0.00000000       0.00000000 </v>
   <v>       0.20000000      -0.00000000       0.00000000 </v>
   <v>       0.40000000      -0.00000000       0.00000000 </v>
   <v>       0.00000000       0.20000000       0.00000000 </v>
   <v>       0.20000000       0.20000000       0.00000000 </v>
   <v>       0.40000000       0.20000000       0.00000000 </v>
   <v>      -0.40000000       0.20000000       0.00000000 </v>
   <v>      -0.20000000       0.20000000       0.00000000 </v>
   <v>       0.00000000       0.40000000       0.00000000 </v>
   <v>       0.20000000       0.40000000       0.00000000 </v>
   <v>       0.40000000       0.40000000       0.00000000 </v>
   <v>      -0.40000000       0.40000000       0.00000000 </v>
   <v>      -0.20000000       0.40000000       0.00000000 </v>
  </varray>
  <varray name="weights" >
   <v>       0.04000000 </v>
   <v>       0.08000000 </v>
   <v>       0.08000000 </v>
   <v>       0.08000000 </v>
   <v>       0.08000000 </v>
   <v>       0.08000000 </v>
   <v>       0.08000000 </v>
   <v>       0.08000000 </v>
   <v>       0.08000000 </v>
   <v>       0.08000000 </v>
   <v>       0.08000000 </v>
   <v>       0.08000000 </v>
   <v>       0.08000000 </v>
  </varray>
 </kpoints>
 <parameters>
  <separator name="general" >
   <i type="string" name="SYSTEM">unknown system</i>
   <i type="logical" name="LCOMPAT"> F  </i>
  </separator>
  <separator name="electronic" >
   <i type="string" name="PREC">normal</i>
   <i name="ENMAX">    350.00000000</i>
   <i name="ENAUG">    644.87300000</i>
   <i name="EDIFF">      0.00010000</i>
   <i type="int" name="IALGO">    38</i>
   <i type="int" name="IWAVPR">    10</i>
   <i type="int" name="NBANDS">   112</i>
   <i name="NELECT">    186.00000000</i>
   <i type="int" name="TURBO">     0</i>
   <i type="int" name="IRESTART">     0</i>
   <i type="int" name="NREBOOT">     0</i>
   <i type="int" name="NMIN">     0</i>
   <i name="EREF">      0.00000000</i>
   <separator name="electronic smearing" >
    <i type="int" name="ISMEAR">     1</i>
    <i name="SIGMA">      0.20000000</i>
    <i name="KSPACING">      0.50000000</i>
    <i type="logical" name="KGAMMA"> T  </i>
   </separator>
   <separator name="electronic projectors" >
    <i type="logical" name="LREAL"> T  </i>
    <v name="ROPT">     -0.00050000     -0.00050000     -0.00050000</v>
    <i type="int" name="LMAXPAW">  -100</i>
    <i type="int" name="LMAXMIX">     2</i>
    <i type="logical" name="NLSPLINE"> F  </i>
   </separator>
   <separator name="electronic startup" >
    <i type="int" name="ISTART">     0</i>
    <i type="int" name="ICHARG">     2</i>
    <i type="int" name="INIWAV">     1</i>
   </separator>
   <separator name="electronic spin" >
    <i type="int" name="ISPIN">     1</i>
    <i type="logical" name="LNONCOLLINEAR"> F  </i>
    <v name="MAGMOM">      1.00000000      1.00000000      1.00000000      1.00000000      1.00000000      1.00000000      1.00000000      1.00000000      1.00000000      1.00000000      1.00000000      1.00000000      1.00000000      1.00000000      1.00000000      1.00000000      1.00000000      1.00000000</v>
    <i name="NUPDOWN">     -1.00000000</i>
    <i type="logical" name="LSORBIT"> F  </i>
    <v name="SAXIS">      0.00000000      0.00000000      1.00000000</v>
    <i type="logical" name="LSPIRAL"> F  </i>
    <v name="QSPIRAL">      0.00000000      0.00000000      0.00000000</v>
    <i type="logical" name="LZEROZ"> F  </i>
   </separator>
   <separator name="electronic exchange-correlation" >
    <i type="logical" name="LASPH"> F  </i>
    <i type="logical" name="LMETAGGA"> F  </i>
   </separator>
   <separator name="electronic convergence" >
    <i type="int" name="NELM">    60</i>
    <i type="int" name="NELMDL">    -5</i>
    <i type="int" name="NELMIN">     2</i>
    <i name="ENINI">    350.00000000</i>
    <separator name="electronic convergence detail" >
     <i type="logical" name="LDIAG"> T  </i>
     <i type="logical" name="LSUBROT"> F  </i>
     <i name="WEIMIN">      0.00000000</i>
     <i name="EBREAK">      0.00000022</i>
     <i name="DEPER">      0.30000000</i>
     <i type="int" name="NRMM">     4</i>
     <i name="TIME">      0.40000000</i>
    </separator>
   </separator>
   <separator name="electronic mixer" >
    <i name="AMIX">      0.40000000</i>
    <i name="BMIX">      1.00000000</i>
    <i name="AMIN">      0.10000000</i>
    <i name="AMIX_MAG">      1.60000000</i>
    <i name="BMIX_MAG">      1.00000000</i>
    <separator name="electronic mixer details" >
     <i type="int" name="IMIX">     4</i>
     <i type="logical" name="MIXFIRST"> F  </i>
     <i type="int" name="MAXMIX">   -45</i>
     <i name="WC">    100.00000000</i>
     <i type="int" name="INIMIX">     1</i>
     <i type="int" name="MIXPRE">     1</i>
     <i type="int" name="MREMOVE">     5</i>
    </separator>
   </separator>
   <separator name="electronic dipolcorrection" >
    <i type="logical" name="LDIPOL"> F  </i>
    <i type="logical" name="LMONO"> F  </i>
    <i type="int" name="IDIPOL">     0</i>
    <i name="EPSILON">      1.00000000</i>
    <v name="DIPOL">   -100.00000000   -100.00000000   -100.00000000</v>
    <i name="EFIELD">      0.00000000</i>
   </separator>
  </separator>
  <separator name="grids" >
   <i type="int" name="NGX">    24</i>
   <i type="int" name="NGY">    24</i>
   <i type="int" name="NGZ">   126</i>
   <i type="int" name="NGXF">    48</i>
   <i type="int" name="NGYF">    48</i>
   <i type="int" name="NGZF">   252</i>
   <i type="logical" name="ADDGRID"> F  </i>
  </separator>
  <separator name="ionic" >
   <i type="int" name="NSW">     0</i>
   <i type="int" name="IBRION">    -1</i>
   <i type="int" name="MDALGO">     0</i>
   <i type="int" name="ISIF">     0</i>
   <i name="PSTRESS">      0.00000000</i>
   <i name="EDIFFG">     -0.03000000</i>
   <i type="int" name="NFREE">     1</i>
   <i name="POTIM">      0.50000000</i>
   <i name="SMASS">     -3.00000000</i>
   <i name="SCALEE">      1.00000000</i>
  </separator>
  <separator name="ionic md" >
   <i name="TEBEG">      0.00010000</i>
   <i name="TEEND">      0.00010000</i>
   <i type="int" name="NBLOCK">     1</i>
   <i type="int" name="KBLOCK">     1</i>
   <i type="int" name="NPACO">   256</i>
   <i name="APACO">     16.00000000</i>
  </separator>
  <separator name="symmetry" >
   <i type="int" name="ISYM">     0</i>
   <i name="SYMPREC">      0.00001000</i>
  </separator>
  <separator name="dos" >
   <i type="int" name="LORBIT">     0</i>
   <v name="RWIGS">      1.50000000      0.80000000      0.80000000</v>
   <i type="int" name="NEDOS">   301</i>
   <i name="EMIN">     10.00000000</i>
   <i name="EMAX">    -10.00000000</i>
   <i name="EFERMI">      0.00000000</i>
  </separator>
  <separator name="writing" >
   <i type="int" name="NWRITE">     2</i>
   <i type="logical" name="LWAVE"> F  </i>
   <i type="logical" name="LDOWNSAMPLE"> F  </i>
   <i type="logical" name="LCHARG"> F  </i>
   <i type="logical" name="LPARD"> F  </i>
   <i type="logical" name="LVTOT"> F  </i>
   <i type="logical" name="LVHAR"> F  </i>
   <i type="logical" name="LELF"> F  </i>
   <i type="logical" name="LOPTICS"> F  </i>
   <v name="STM">      0.00000000      0.00000000      0.00000000      0.00000000      0.00000000      0.00000000      0.00000000</v>
  </separator>
  <separator name="performance" >
   <i type="int" name="NPAR">     4</i>
   <i type="int" name="NSIM">     4</i>
   <i type="int" name="NBLK">    -1</i>
   <i type="logical" name="LPLANE"> T  </i>
   <i type="logical" name="LSCALAPACK"> T  </i>
   <i type="logical" name="LSCAAWARE"> F  </i>
   <i type="logical" name="LSCALU"> F  </i>
   <i type="logical" name="LASYNC"> F  </i>
   <i type="logical" name="LORBITALREAL"> F  </i>
  </separator>
  <separator name="miscellaneous" >
   <i type="int" name="IDIOT">     3</i>
   <i type="int" name="ISPECIAL">     0</i>
   <i type="logical" name="LMUSIC"> F  </i>
   <v name="POMASS">     63.54600000     12.01100000     16.00000000</v>
   <v name="DARWINR">      0.00000000      0.00000000      0.00000000</v>
   <v name="DARWINV">      1.00000000      1.00000000      1.00000000</v>
   <i type="logical" name="LCORR"> T  </i>
  </separator>
  <i type="logical" name="GGA_COMPAT"> T  </i>
  <i type="logical" name="LBERRY"> F  </i>
  <i type="int" name="ICORELEVEL">     0</i>
  <i type="logical" name="LDAU"> F  </i>
  <i type="int" name="I_CONSTRAINED_M">     0</i>
  <separator name="electronic exchange-correlation" >
   <i type="string" name="GGA">RP</i>
   <i type="int" name="VOSKOWN">     0</i>
   <i type="logical" name="LHFCALC"> F  </i>
   <i type="string" name="PRECFOCK"></i>
   <i type="logical" name="LSYMGRAD"> F  </i>
   <i type="logical" name="LHFONE"> F  </i>
   <i type="logical" name="LRHFCALC"> F  </i>
   <i type="logical" name="LTHOMAS"> F  </i>
   <i type="logical" name="LMODELHF"> F  </i>
   <i name="ENCUT4O">     -1.00000000</i>
   <i type="int" name="EXXOEP">     0</i>
   <i type="int" name="FOURORBIT">     0</i>
   <i name="AEXX">      0.00000000</i>
   <i name="HFALPHA">      0.00000000</i>
   <i name="MCALPHA">      0.00000000</i>
   <i name="ALDAX">      1.00000000</i>
   <i name="AGGAX">      1.00000000</i>
   <i name="ALDAC">      1.00000000</i>
   <i name="AGGAC">      1.00000000</i>
   <i type="int" name="NKREDX">     1</i>
   <i type="int" name="NKREDY">     1</i>
   <i type="int" name="NKREDZ">     1</i>
   <i type="logical" name="SHIFTRED"> F  </i>
   <i type="logical" name="ODDONLY"> F  </i>
   <i type="logical" name="EVENONLY"> F  </i>
   <i type="int" name="LMAXFOCK">     0</i>
   <i type="int" name="NMAXFOCKAE">     0</i>
   <i type="logical" name="LFOCKAEDFT"> F  </i>
   <i name="HFSCREEN">      0.00000000</i>
   <i name="HFSCREENC">      0.00000000</i>
   <i type="int" name="NBANDSGWLOW">     0</i>
  </separator>
  <separator name="vdW DFT" >
   <i type="logical" name="LUSE_VDW"> F  </i>
   <i name="Zab_VDW">     -0.84910000</i>
   <i name="PARAM1">      0.12340000</i>
   <i name="PARAM2">      1.00000000</i>
   <i name="PARAM3">      0.00000000</i>
  </separator>
  <separator name="model GW" >
   <i type="int" name="MODEL_GW">     0</i>
   <i name="MODEL_EPS0">     20.58247211</i>
   <i name="MODEL_ALPHA">      1.00000000</i>
  </separator>
  <separator name="linear response parameters" >
   <i type="logical" name="LEPSILON"> F  </i>
   <i type="logical" name="LRPA"> F  </i>
   <i type="logical" name="LNABLA"> F  </i>
   <i type="logical" name="LVEL"> F  </i>
   <i type="int" name="KINTER">     0</i>
   <i name="CSHIFT">      0.10000000</i>
   <i name="OMEGAMAX">     -1.00000000</i>
   <i name="DEG_THRESHOLD">      0.00200000</i>
   <i name="RTIME">     -0.10000000</i>
   <i name="WPLASMAI">      0.00000000</i>
   <v name="DFIELD">      0.00000000      0.00000000      0.00000000</v>
   <v name="WPLASMA">      0.00000000      0.00000000      0.00000000      0.00000000      0.00000000      0.00000000      0.00000000      0.00000000      0.00000000</v>
  </separator>
  <separator name="orbital magnetization" >
   <i type="logical" name="NUCIND"> F  </i>
   <v name="MAGPOS">      0.00000000      0.00000000      0.00000000</v>
   <i type="logical" name="LNICSALL"> T  </i>
   <i type="logical" name="ORBITALMAG"> F  </i>
   <i type="logical" name="LMAGBLOCH"> F  </i>
   <i type="logical" name="LCHIMAG"> F  </i>
   <i type="logical" name="LGAUGE"> T  </i>
   <i type="int" name="MAGATOM">     0</i>
   <v name="MAGDIPOL">      0.00000000      0.00000000      0.00000000</v>
   <v name="AVECCONST">      0.00000000      0.00000000      0.00000000</v>
  </separator>
  <separator name="response functions" >
   <i type="logical" name="LADDER"> F  </i>
   <i type="logical" name="LRPAFORCE"> F  </i>
   <i type="logical" name="LFXC"> F  </i>
   <i type="logical" name="LHARTREE"> T  </i>
   <i type="int" name="IBSE">     0</i>
   <v type="int" name="KPOINT">    -1     0     0     0</v>
   <i type="logical" name="LTCTE"> F  </i>
   <i type="logical" name="LTETE"> F  </i>
   <i type="logical" name="LTRIPLET"> F  </i>
   <i type="logical" name="LFXCEPS"> F  </i>
   <i type="logical" name="LFXHEG"> F  </i>
   <i type="int" name="NATURALO">     2</i>
   <i type="logical" name="L2ORDER"> F  </i>
   <i type="logical" name="LMP2LT"> F  </i>
   <i type="logical" name="LUSEW"> F  </i>
   <i name="ENCUTGW">     -2.00000000</i>
   <i name="ENCUTGWSOFT">     -2.00000000</i>
   <i name="ENCUTLF">     -1.00000000</i>
   <i type="int" name="LMAXMP2">    -1</i>
   <i name="SCISSOR">      0.00000000</i>
   <i type="int" name="NOMEGA">     0</i>
   <i type="int" name="NOMEGAR">     0</i>
   <i type="int" name="NBANDSGW">    -1</i>
   <i type="int" name="NBANDSO">    -1</i>
   <i type="int" name="NBANDSV">    -1</i>
   <i type="int" name="NELM">     1</i>
   <i type="int" name="NELMHF">     1</i>
   <i type="int" name="DIM">     3</i>
   <i type="int" name="ANTIRES">     0</i>
   <i name="OMEGAMAX">    -30.00000000</i>
   <i name="OMEGAMIN">    -30.00000000</i>
   <i name="OMEGATL">   -200.00000000</i>
   <i type="int" name="OMEGAGRID">   140</i>
   <i name="CSHIFT">     -0.10000000</i>
   <i type="logical" name="SELFENERGY"> F  </i>
   <i type="logical" name="LSPECTRAL"> F  </i>
   <i type="logical" name="LSPECTRALGW"> F  </i>
   <i type="logical" name="LSINGLES"> F  </i>
   <i type="logical" name="LFERMIGW"> F  </i>
   <i type="logical" name="ODDONLYGW"> F  </i>
   <i type="logical" name="EVENONLYGW"> F  </i>
   <i type="int" name="NKREDLFX">     1</i>
   <i type="int" name="NKREDLFY">     1</i>
   <i type="int" name="NKREDLFZ">     1</i>
   <i type="int" name="MAXMEM">  2800</i>
   <i type="int" name="TELESCOPE">     0</i>
   <i type="int" name="TAUPAR">     1</i>
   <i type="int" name="OMEGAPAR">    -1</i>
   <i name="LAMBDA">      1.00000000</i>
  </separator>
  <separator name="External order field" >
   <i name="OFIELD_KAPPA">      0.00000000</i>
   <v name="OFIELD_K">      0.00000000      0.00000000      0.00000000</v>
   <i name="OFIELD_Q6_NEAR">      0.00000000</i>
   <i name="OFIELD_Q6_FAR">      0.00000000</i>
   <i name="OFIELD_A">      0.00000000</i>
  </separator>
 </parameters>
 <atominfo>
  <atoms>      18 </atoms>
  <types>       3 </types>
  <array name="atoms" >
   <dimension dim="1">ion</dimension>
   <field type="string">element</field>
   <field type="int">atomtype</field>
   <set>
    <rc><c>Cu</c><c>   1</c></rc>
    <rc><c>Cu</c><c>   1</c></rc>
    <rc><c>Cu</c><c>   1</c></rc>
    <rc><c>Cu</c><c>   1</c></rc>
    <rc><c>Cu</c><c>   1</c></rc>
    <rc><c>Cu</c><c>   1</c></rc>
    <rc><c>Cu</c><c>   1</c></rc>
    <rc><c>Cu</c><c>   1</c></rc>
    <rc><c>Cu</c><c>   1</c></rc>
    <rc><c>Cu</c><c>   1</c></rc>
    <rc><c>Cu</c><c>   1</c></rc>
    <rc><c>Cu</c><c>   1</c></rc>
    <rc><c>Cu</c><c>   1</c></rc>
    <rc><c>Cu</c><c>   1</c></rc>
    <rc><c>Cu</c><c>   1</c></rc>
    <rc><c>Cu</c><c>   1</c></rc>
    <rc><c>C </c><c>   2</c></rc>
    <rc><c>O </c><c>   3</c></rc>
   </set>
  </array>
  <array name="atomtypes" >
   <dimension dim="1">type</dimension>
   <field type="int">atomspertype</field>
   <field type="string">element</field>
   <field>mass</field>
   <field>valence</field>
   <field type="string">pseudopotential</field>
   <set>
    <rc><c>  16</c><c>Cu</c><c>     63.54600000</c><c>     11.00000000</c><c>  PAW_PBE Cu 22Jun2005                  </c></rc>
    <rc><c>   1</c><c>C </c><c>     12.01100000</c><c>      4.00000000</c><c>  PAW_PBE C 08Apr2002                   </c></rc>
    <rc><c>   1</c><c>O </c><c>     16.00000000</c><c>      6.00000000</c><c>  PAW_PBE O 08Apr2002                   </c></rc>
   </set>
  </array>
 </atominfo>
 <structure name="initialpos" >
  <crystal>
   <varray name="basis" >
    <v>       5.19996363       0.00000000       0.00000000 </v>
    <v>       2.59998182       4.50330060       0.00000000 </v>
    <v>       0.00000000       0.00000000      26.36862879 </v>
   </varray>
   <i name="volume">    617.47416323 </i>
   <varray name="rec_basis" >
    <v>       0.19230904      -0.11102967       0.00000000 </v>
    <v>       0.00000000       0.22205935       0.00000000 </v>
    <v>       0.00000000       0.00000000       0.03792385 </v>
   </varray>
  </crystal>
  <varray name="positions" >
   <v>       0.00000000       0.00000000       0.37923853 </v>
   <v>       0.50000000       0.00000000       0.37923853 </v>
   <v>       0.00000000       0.50000000       0.37923853 </v>
   <v>       0.50000000       0.50000000       0.37923853 </v>
   <v>       0.16666667       0.16666667       0.45974618 </v>
   <v>       0.66666667       0.16666667       0.45974618 </v>
   <v>       0.16666667       0.66666667       0.45974618 </v>
   <v>       0.66666667       0.66666667       0.45974618 </v>
   <v>       0.83247777       0.33503337       0.53981735 </v>
   <v>       0.33333139       0.33333139       0.53786352 </v>
   <v>       0.83249001       0.83249002       0.53981757 </v>
   <v>       0.33503333       0.83247779       0.53981735 </v>
   <v>       0.00000232       0.00000238       0.61711858 </v>
   <v>       0.50066979       0.99866295       0.62106858 </v>
   <v>       0.99866300       0.50066978       0.62106858 </v>
   <v>       0.50066969       0.50066970       0.62107254 </v>
   <v>       0.33332688       0.33332666       0.67499514 </v>
   <v>       0.33331476       0.33331424       0.72001527 </v>
  </varray>
  <varray name="selective"  type="logical" >
   <v type="logical" >  F  F  F </v>
   <v type="logical" >  F  F  F </v>
   <v type="logical" >  F  F  F </v>
   <v type="logical" >  F  F  F </v>
   <v type="logical" >  F  F  F </v>
   <v type="logical" >  F  F  F </v>
   <v type="logical" >  F  F  F </v>
   <v type="logical" >  F  F  F </v>
   <v type="logical" >  T  T  T </v>
   <v type="logical" >  T  T  T </v>
   <v type="logical" >  T  T  T </v>
   <v type="logical" >  T  T  T </v>
   <v type="logical" >  T  T  T </v>
   <v type="logical" >  T  T  T </v>
   <v type="logical" >  T  T  T </v>
   <v type="logical" >  T  T  T </v>
   <v type="logical" >  T  T  T </v>
   <v type="logical" >  T  T  T </v>
  </varray>
  <nose>
   <v>      -3.00000000       0.00000000       0.00010000       0.00010000 </v>
  </nose>
 </structure>
 <calculation>
  <scstep>
   <time name="dav">    5.49    5.49</time>
   <time name="total">    5.56    5.57</time>
   <energy>
    <i name="alphaZ">    333.59272159 </i>
    <i name="ewald"> 110502.17087986 </i>
    <i name="hartreedc">-132265.94472292 </i>
    <i name="XCdc">    758.20525692 </i>
    <i name="pawpsdc">  20119.38880325 </i>
    <i name="pawaedc"> -21798.78739505 </i>
    <i name="eentropy">     -0.00887627 </i>
    <i name="bandstr">   1159.43774140 </i>
    <i name="atom">  22817.67997243 </i>
    <i name="e_fr_energy">   1625.73438121 </i>
    <i name="e_wo_entrp">   1625.74325748 </i>
    <i name="e_0_energy">   1625.73733996 </i>
   </energy>
  </scstep>
  <scstep>
   <time name="dav">    5.56    5.56</time>
   <time name="total">    5.56    5.57</time>
   <energy>
    <i name="e_fr_energy">    156.43518312 </i>
    <i name="e_wo_entrp">    156.42022761 </i>
    <i name="e_0_energy">    156.43019795 </i>
   </energy>
  </scstep>
  <scstep>
   <time name="dav">    6.51    6.51</time>
   <time name="total">    6.51    6.52</time>
   <energy>
    <i name="e_fr_energy">    -51.00519265 </i>
    <i name="e_wo_entrp">    -51.01014968 </i>
    <i name="e_0_energy">    -51.00684499 </i>
   </energy>
  </scstep>
  <scstep>
   <time name="dav">    7.79    7.79</time>
   <time name="total">    7.80    7.80</time>
   <energy>
    <i name="e_fr_energy">    -76.63403923 </i>
    <i name="e_wo_entrp">    -76.62784801 </i>
    <i name="e_0_energy">    -76.63197549 </i>
   </energy>
  </scstep>
  <scstep>
   <time name="dav">    7.43    7.43</time>
   <time name="total">    7.66    7.66</time>
   <energy>
    <i name="e_fr_energy">    -77.92699280 </i>
    <i name="e_wo_entrp">    -77.91493851 </i>
    <i name="e_0_energy">    -77.92297471 </i>
   </energy>
  </scstep>
  <scstep>
   <time name="dav">    6.28    6.28</time>
   <time name="total">    6.62    6.62</time>
   <energy>
    <i name="e_fr_energy">    -75.67226792 </i>
    <i name="e_wo_entrp">    -75.66489361 </i>
    <i name="e_0_energy">    -75.66980982 </i>
   </energy>
  </scstep>
  <scstep>
   <time name="dav">    5.93    5.93</time>
   <time name="total">    6.19    6.20</time>
   <energy>
    <i name="e_fr_energy">    -64.01770227 </i>
    <i name="e_wo_entrp">    -64.02377314 </i>
    <i name="e_0_energy">    -64.01972589 </i>
   </energy>
  </scstep>
  <scstep>
   <time name="dav">    7.09    7.09</time>
   <time name="total">    7.45    7.45</time>
   <energy>
    <i name="e_fr_energy">    -64.13700990 </i>
    <i name="e_wo_entrp">    -64.17120772 </i>
    <i name="e_0_energy">    -64.14840917 </i>
   </energy>
  </scstep>
  <scstep>
   <time name="dav">    8.09    8.09</time>
   <time name="total">    8.41    8.42</time>
   <energy>
    <i name="e_fr_energy">    -63.80116190 </i>
    <i name="e_wo_entrp">    -63.81297821 </i>
    <i name="e_0_energy">    -63.80510067 </i>
   </energy>
  </scstep>
  <scstep>
   <time name="dav">    6.65    6.65</time>
   <time name="total">    6.96    6.96</time>
   <energy>
    <i name="e_fr_energy">    -63.85446360 </i>
    <i name="e_wo_entrp">    -63.87955599 </i>
    <i name="e_0_energy">    -63.86282773 </i>
   </energy>
  </scstep>
  <scstep>
   <time name="dav">    5.80    5.80</time>
   <time name="total">    6.04    6.04</time>
   <energy>
    <i name="e_fr_energy">    -63.85511910 </i>
    <i name="e_wo_entrp">    -63.87672011 </i>
    <i name="e_0_energy">    -63.86231944 </i>
   </energy>
  </scstep>
  <scstep>
   <time name="dav">    7.14    7.14</time>
   <time name="total">    7.47    7.47</time>
   <energy>
    <i name="e_fr_energy">    -63.82846302 </i>
    <i name="e_wo_entrp">    -63.85122425 </i>
    <i name="e_0_energy">    -63.83605010 </i>
   </energy>
  </scstep>
  <scstep>
   <time name="dav">    6.87    6.87</time>
   <time name="total">    7.19    7.19</time>
   <energy>
    <i name="e_fr_energy">    -63.81775605 </i>
    <i name="e_wo_entrp">    -63.83878239 </i>
    <i name="e_0_energy">    -63.82476483 </i>
   </energy>
  </scstep>
  <scstep>
   <time name="dav">    6.45    6.45</time>
   <time name="total">    6.77    6.77</time>
   <energy>
    <i name="e_fr_energy">    -63.81822983 </i>
    <i name="e_wo_entrp">    -63.84012811 </i>
    <i name="e_0_energy">    -63.82552926 </i>
   </energy>
  </scstep>
  <scstep>
   <time name="dav">    5.94    5.94</time>
   <time name="total">    6.25    6.25</time>
   <energy>
    <i name="e_fr_energy">    -63.81844504 </i>
    <i name="e_wo_entrp">    -63.83980910 </i>
    <i name="e_0_energy">    -63.82556640 </i>
   </energy>
  </scstep>
  <scstep>
   <time name="dav">    6.67    6.67</time>
   <time name="total">    7.00    7.00</time>
   <energy>
    <i name="e_fr_energy">    -63.81649866 </i>
    <i name="e_wo_entrp">    -63.83782062 </i>
    <i name="e_0_energy">    -63.82360598 </i>
   </energy>
  </scstep>
  <scstep>
   <time name="dav">    7.46    7.46</time>
   <time name="total">    7.76    7.76</time>
   <energy>
    <i name="e_fr_energy">    -63.81628155 </i>
    <i name="e_wo_entrp">    -63.83796398 </i>
    <i name="e_0_energy">    -63.82350903 </i>
   </energy>
  </scstep>
  <scstep>
   <time name="dav">    6.29    6.29</time>
   <time name="total">    6.71    6.71</time>
   <energy>
    <i name="e_fr_energy">    -63.81642357 </i>
    <i name="e_wo_entrp">    -63.83812550 </i>
    <i name="e_0_energy">    -63.82365755 </i>
   </energy>
  </scstep>
  <scstep>
   <time name="dav">    4.96    4.96</time>
   <time name="total">    5.30    5.30</time>
   <energy>
    <i name="e_fr_energy">    -63.81652633 </i>
    <i name="e_wo_entrp">    -63.83824803 </i>
    <i name="e_0_energy">    -63.82376690 </i>
   </energy>
  </scstep>
  <scstep>
   <time name="dav">    4.51    4.51</time>
   <time name="total">    4.87    4.87</time>
   <energy>
    <i name="e_fr_energy">    -63.81671698 </i>
    <i name="e_wo_entrp">    -63.83839074 </i>
    <i name="e_0_energy">    -63.82394157 </i>
   </energy>
  </scstep>
  <scstep>
   <time name="dav">    3.78    3.78</time>
   <time name="total">    4.07    4.07</time>
   <energy>
    <i name="e_fr_energy">    -63.81688481 </i>
    <i name="e_wo_entrp">    -63.83854030 </i>
    <i name="e_0_energy">    -63.82410330 </i>
   </energy>
  </scstep>
  <scstep>
   <time name="dav">    4.14    4.14</time>
   <time name="total">    4.43    4.43</time>
   <energy>
    <i name="e_fr_energy">    -63.81700154 </i>
    <i name="e_wo_entrp">    -63.83865807 </i>
    <i name="e_0_energy">    -63.82422039 </i>
   </energy>
  </scstep>
  <scstep>
   <time name="dav">    3.93    3.93</time>
   <time name="total">    4.23    4.24</time>
   <energy>
    <i name="e_fr_energy">    -63.81716738 </i>
    <i name="e_wo_entrp">    -63.83884749 </i>
    <i name="e_0_energy">    -63.82439409 </i>
   </energy>
  </scstep>
  <scstep>
   <time name="dav">    4.07    4.07</time>
   <time name="total">    4.11    4.11</time>
   <energy>
    <i name="alphaZ">    333.59272159 </i>
    <i name="ewald"> 110502.17087986 </i>
    <i name="hartreedc">-132015.65774733 </i>
    <i name="XCdc">    744.15510112 </i>
    <i name="pawpsdc">  21553.89533083 </i>
    <i name="pawaedc"> -23264.51868577 </i>
    <i name="eentropy">      0.02168898 </i>
    <i name="bandstr">   -735.15650672 </i>
    <i name="atom">  22817.67997243 </i>
    <i name="e_fr_energy">    -63.81724501 </i>
    <i name="e_wo_entrp">    -63.83893399 </i>
    <i name="e_0_energy">    -63.82447467 </i>
   </energy>
  </scstep>
  <structure>
   <crystal>
    <varray name="basis" >
     <v>       5.19996363       0.00000000       0.00000000 </v>
     <v>       2.59998182       4.50330060       0.00000000 </v>
     <v>       0.00000000       0.00000000      26.36862879 </v>
    </varray>
    <i name="volume">    617.47416323 </i>
    <varray name="rec_basis" >
     <v>       0.19230904      -0.11102967       0.00000000 </v>
     <v>       0.00000000       0.22205935       0.00000000 </v>
     <v>       0.00000000       0.00000000       0.03792385 </v>
    </varray>
   </crystal>
   <varray name="positions" >
    <v>       0.00000000       0.00000000       0.37923853 </v>
    <v>       0.50000000       0.00000000       0.37923853 </v>
    <v>       0.00000000       0.50000000       0.37923853 </v>
    <v>       0.50000000       0.50000000       0.37923853 </v>
    <v>       0.16666667       0.16666667       0.45974618 </v>
    <v>       0.66666667       0.16666667       0.45974618 </v>
    <v>       0.16666667       0.66666667       0.45974618 </v>
    <v>       0.66666667       0.66666667       0.45974618 </v>
    <v>       0.83247777       0.33503337       0.53981735 </v>
    <v>       0.33333139       0.33333139       0.53786352 </v>
    <v>       0.83249001       0.83249002       0.53981757 </v>
    <v>       0.33503333       0.83247779       0.53981735 </v>
    <v>       0.00000232       0.00000238       0.61711858 </v>
    <v>       0.50066979       0.99866295       0.62106858 </v>
    <v>       0.99866300       0.50066978       0.62106858 </v>
    <v>       0.50066969       0.50066970       0.62107254 </v>
    <v>       0.33332688       0.33332666       0.67499514 </v>
    <v>       0.33331476       0.33331424       0.72001527 </v>
   </varray>
  </structure>
  <varray name="forces" >
   <v>      -0.00001136       0.00000446      -0.00178395 </v>
   <v>       0.00002468       0.02102447       0.05369012 </v>
   <v>       0.01820379      -0.01048939       0.05369521 </v>
   <v>      -0.01819121      -0.01051370       0.05368718 </v>
   <v>      -0.07173120      -0.04141631      -0.03594130 </v>
   <v>       0.07177114      -0.04140778      -0.03599438 </v>
   <v>       0.00002787       0.08286201      -0.03599585 </v>
   <v>       0.00007535       0.00004679       0.00012588 </v>
   <v>       0.00002099       0.00657203      -0.00147838 </v>
   <v>      -0.00000997      -0.00001499       0.00051836 </v>
   <v>      -0.00573684      -0.00329110      -0.00153297 </v>
   <v>       0.00571514      -0.00325898      -0.00147653 </v>
   <v>       0.00001708       0.00001746       0.00904117 </v>
   <v>       0.00001344      -0.00127068      -0.00668044 </v>
   <v>      -0.00112300       0.00065668      -0.00668065 </v>
   <v>       0.00099436       0.00057386      -0.00662351 </v>
   <v>       0.00008061      -0.00001417      -0.00322496 </v>
   <v>      -0.00014087      -0.00008066      -0.03334502 </v>
  </varray>
  <energy>
   <i name="e_fr_energy">    -63.81724501 </i>
   <i name="e_wo_entrp">    -63.82447467 </i>
   <i name="e_0_energy">      0.02168898 </i>
  </energy>
  <time name="totalsc">  152.49  152.53</time>
  <eigenvalues>
   <array>
    <dimension dim="1">band</dimension>
    <dimension dim="2">kpoint</dimension>
    <dimension dim="3">spin</dimension>
    <field>eigene</field>
    <field>occ</field>
    <set>
     <set comment="spin 1">
      <set comment="kpoint 1">
       <r>  -24.2497    1.0000 </r>
       <r>  -11.1080    1.0000 </r>
       <r>   -9.2341    1.0000 </r>
       <r>   -8.3247    1.0000 </r>
       <r>   -7.4776    1.0000 </r>
       <r>   -7.3960    1.0000 </r>
       <r>   -7.3954    1.0000 </r>
       <r>   -6.1235    1.0000 </r>
       <r>   -5.5286    1.0000 </r>
       <r>   -5.3266    1.0000 </r>
       <r>   -5.3114    1.0000 </r>
       <r>   -5.3113    1.0000 </r>
       <r>   -5.1804    1.0000 </r>
       <r>   -5.1804    1.0000 </r>
       <r>   -5.1484    1.0000 </r>
       <r>   -4.9309    1.0000 </r>
       <r>   -4.9308    1.0000 </r>
       <r>   -4.8140    1.0000 </r>
       <r>   -4.7940    1.0000 </r>
       <r>   -4.7845    1.0000 </r>
       <r>   -4.7844    1.0000 </r>
       <r>   -4.7527    1.0000 </r>
       <r>   -4.7527    1.0000 </r>
       <r>   -4.6802    1.0000 </r>
       <r>   -4.4362    1.0000 </r>
       <r>   -4.4361    1.0000 </r>
       <r>   -4.3678    1.0000 </r>
       <r>   -3.9491    1.0000 </r>
       <r>   -3.9491    1.0000 </r>
       <r>   -3.8682    1.0000 </r>
       <r>   -3.7547    1.0000 </r>
       <r>   -3.7008    1.0000 </r>
       <r>   -3.7007    1.0000 </r>
       <r>   -3.6737    1.0000 </r>
       <r>   -3.6736    1.0000 </r>
       <r>   -3.6506    1.0000 </r>
       <r>   -3.5909    1.0000 </r>
       <r>   -3.5494    1.0000 </r>
       <r>   -3.5493    1.0000 </r>
       <r>   -3.5337    1.0000 </r>
       <r>   -3.5244    1.0000 </r>
       <r>   -3.5243    1.0000 </r>
       <r>   -3.4877    1.0000 </r>
       <r>   -3.4876    1.0000 </r>
       <r>   -3.4593    1.0000 </r>
       <r>   -3.4592    1.0000 </r>
       <r>   -3.3267    1.0000 </r>
       <r>   -3.3265    1.0000 </r>
       <r>   -3.3194    1.0000 </r>
       <r>   -3.3125    1.0000 </r>
       <r>   -3.2447    1.0000 </r>
       <r>   -3.2447    1.0000 </r>
       <r>   -3.2196    1.0000 </r>
       <r>   -3.1161    1.0000 </r>
       <r>   -3.1161    1.0000 </r>
       <r>   -2.9936    1.0000 </r>
       <r>   -2.9315    1.0000 </r>
       <r>   -2.9315    1.0000 </r>
       <r>   -2.8012    1.0000 </r>
       <r>   -2.8012    1.0000 </r>
       <r>   -2.7481    1.0000 </r>
       <r>   -2.6775    1.0000 </r>
       <r>   -2.6775    1.0000 </r>
       <r>   -2.6524    1.0000 </r>
       <r>   -2.6524    1.0000 </r>
       <r>   -2.5319    1.0000 </r>
       <r>   -2.5304    1.0000 </r>
       <r>   -2.5304    1.0000 </r>
       <r>   -2.4892    1.0000 </r>
       <r>   -2.4251    1.0000 </r>
       <r>   -2.4251    1.0000 </r>
       <r>   -2.3958    1.0000 </r>
       <r>   -2.3742    1.0000 </r>
       <r>   -2.3742    1.0000 </r>
       <r>   -2.3422    1.0000 </r>
       <r>   -2.3388    1.0000 </r>
       <r>   -2.3387    1.0000 </r>
       <r>   -2.3025    1.0000 </r>
       <r>   -2.3024    1.0000 </r>
       <r>   -2.2943    1.0000 </r>
       <r>   -2.2797    1.0000 </r>
       <r>   -2.2797    1.0000 </r>
       <r>   -2.2057    1.0000 </r>
       <r>   -2.1803    1.0000 </r>
       <r>   -2.1802    1.0000 </r>
       <r>   -2.1218    1.0000 </r>
       <r>   -2.1117    1.0000 </r>
       <r>   -2.1116    1.0000 </r>
       <r>   -1.5368    1.0000 </r>
       <r>   -0.9956    1.0350 </r>
       <r>   -0.9956    1.0350 </r>
       <r>   -0.9440    1.0136 </r>
       <r>   -0.3589   -0.0077 </r>
       <r>   -0.2170   -0.0004 </r>
       <r>   -0.2168   -0.0004 </r>
       <r>    0.2526   -0.0000 </r>
       <r>    0.3172   -0.0000 </r>
       <r>    0.3172   -0.0000 </r>
       <r>    0.7051   -0.0000 </r>
       <r>    0.7427   -0.0000 </r>
       <r>    0.7427   -0.0000 </r>
       <r>    1.1155   -0.0000 </r>
       <r>    1.1156   -0.0000 </r>
       <r>    2.8202   -0.0000 </r>
       <r>    3.3069   -0.0000 </r>
       <r>    3.4084   -0.0000 </r>
       <r>    3.4673   -0.0000 </r>
       <r>    3.4674   -0.0000 </r>
       <r>    3.7161   -0.0000 </r>
       <r>    4.2613   -0.0000 </r>
       <r>    4.4495   -0.0000 </r>
       <r>    4.6067   -0.0000 </r>
      </set>
      <set comment="kpoint 2">
       <r>  -24.2504    1.0000 </r>
       <r>  -11.0582    1.0000 </r>
       <r>   -8.9559    1.0000 </r>
       <r>   -8.1842    1.0000 </r>
       <r>   -7.4720    1.0000 </r>
       <r>   -7.4013    1.0000 </r>
       <r>   -7.2728    1.0000 </r>
       <r>   -5.9229    1.0000 </r>
       <r>   -5.6368    1.0000 </r>
       <r>   -5.3595    1.0000 </r>
       <r>   -5.2778    1.0000 </r>
       <r>   -5.2504    1.0000 </r>
       <r>   -5.2442    1.0000 </r>
       <r>   -5.0954    1.0000 </r>
       <r>   -5.0809    1.0000 </r>
       <r>   -4.9402    1.0000 </r>
       <r>   -4.8364    1.0000 </r>
       <r>   -4.7618    1.0000 </r>
       <r>   -4.7162    1.0000 </r>
       <r>   -4.6990    1.0000 </r>
       <r>   -4.6914    1.0000 </r>
       <r>   -4.6471    1.0000 </r>
       <r>   -4.6261    1.0000 </r>
       <r>   -4.5718    1.0000 </r>
       <r>   -4.3694    1.0000 </r>
       <r>   -4.3654    1.0000 </r>
       <r>   -4.3308    1.0000 </r>
       <r>   -3.9664    1.0000 </r>
       <r>   -3.9659    1.0000 </r>
       <r>   -3.8990    1.0000 </r>
       <r>   -3.8473    1.0000 </r>
       <r>   -3.7933    1.0000 </r>
       <r>   -3.7002    1.0000 </r>
       <r>   -3.6964    1.0000 </r>
       <r>   -3.6459    1.0000 </r>
       <r>   -3.6291    1.0000 </r>
       <r>   -3.6197    1.0000 </r>
       <r>   -3.5940    1.0000 </r>
       <r>   -3.5906    1.0000 </r>
       <r>   -3.5787    1.0000 </r>
       <r>   -3.5541    1.0000 </r>
       <r>   -3.5269    1.0000 </r>
       <r>   -3.5129    1.0000 </r>
       <r>   -3.4816    1.0000 </r>
       <r>   -3.4508    1.0000 </r>
       <r>   -3.4387    1.0000 </r>
       <r>   -3.4283    1.0000 </r>
       <r>   -3.4243    1.0000 </r>
       <r>   -3.3981    1.0000 </r>
       <r>   -3.3571    1.0000 </r>
       <r>   -3.3281    1.0000 </r>
       <r>   -3.2412    1.0000 </r>
       <r>   -3.2298    1.0000 </r>
       <r>   -3.1920    1.0000 </r>
       <r>   -3.1181    1.0000 </r>
       <r>   -3.0821    1.0000 </r>
       <r>   -2.9798    1.0000 </r>
       <r>   -2.9753    1.0000 </r>
       <r>   -2.9471    1.0000 </r>
       <r>   -2.8816    1.0000 </r>
       <r>   -2.8244    1.0000 </r>
       <r>   -2.8077    1.0000 </r>
       <r>   -2.7907    1.0000 </r>
       <r>   -2.7685    1.0000 </r>
       <r>   -2.7164    1.0000 </r>
       <r>   -2.7029    1.0000 </r>
       <r>   -2.6679    1.0000 </r>
       <r>   -2.6602    1.0000 </r>
       <r>   -2.6003    1.0000 </r>
       <r>   -2.5687    1.0000 </r>
       <r>   -2.5306    1.0000 </r>
       <r>   -2.5057    1.0000 </r>
       <r>   -2.4835    1.0000 </r>
       <r>   -2.4494    1.0000 </r>
       <r>   -2.4493    1.0000 </r>
       <r>   -2.4289    1.0000 </r>
       <r>   -2.4198    1.0000 </r>
       <r>   -2.3935    1.0000 </r>
       <r>   -2.3827    1.0000 </r>
       <r>   -2.3599    1.0000 </r>
       <r>   -2.3439    1.0000 </r>
       <r>   -2.3133    1.0000 </r>
       <r>   -2.3088    1.0000 </r>
       <r>   -2.2791    1.0000 </r>
       <r>   -2.2769    1.0000 </r>
       <r>   -2.2407    1.0000 </r>
       <r>   -2.2185    1.0000 </r>
       <r>   -2.2054    1.0000 </r>
       <r>   -2.0244    1.0000 </r>
       <r>   -1.6929    1.0000 </r>
       <r>   -1.1096    1.0168 </r>
       <r>   -1.0002    1.0353 </r>
       <r>   -0.8093    0.6961 </r>
       <r>   -0.5025   -0.0348 </r>
       <r>   -0.4650   -0.0284 </r>
       <r>   -0.2815   -0.0018 </r>
       <r>    0.3894   -0.0000 </r>
       <r>    0.4854   -0.0000 </r>
       <r>    1.0881   -0.0000 </r>
       <r>    1.4314   -0.0000 </r>
       <r>    1.6107   -0.0000 </r>
       <r>    1.9730   -0.0000 </r>
       <r>    2.1164   -0.0000 </r>
       <r>    3.2945   -0.0000 </r>
       <r>    3.6311   -0.0000 </r>
       <r>    3.7658   -0.0000 </r>
       <r>    3.7711   -0.0000 </r>
       <r>    4.0190   -0.0000 </r>
       <r>    4.1326   -0.0000 </r>
       <r>    4.6459   -0.0000 </r>
       <r>    4.7474    0.0000 </r>
       <r>    4.9574    0.0000 </r>
      </set>
      <set comment="kpoint 3">
       <r>  -24.2504    1.0000 </r>
       <r>  -10.9789    1.0000 </r>
       <r>   -8.2305    1.0000 </r>
       <r>   -7.8557    1.0000 </r>
       <r>   -7.5565    1.0000 </r>
       <r>   -7.4093    1.0000 </r>
       <r>   -6.7770    1.0000 </r>
       <r>   -6.6664    1.0000 </r>
       <r>   -5.8327    1.0000 </r>
       <r>   -5.3634    1.0000 </r>
       <r>   -5.1216    1.0000 </r>
       <r>   -5.1080    1.0000 </r>
       <r>   -4.9649    1.0000 </r>
       <r>   -4.9154    1.0000 </r>
       <r>   -4.8827    1.0000 </r>
       <r>   -4.8551    1.0000 </r>
       <r>   -4.6659    1.0000 </r>
       <r>   -4.6543    1.0000 </r>
       <r>   -4.6010    1.0000 </r>
       <r>   -4.4917    1.0000 </r>
       <r>   -4.4714    1.0000 </r>
       <r>   -4.4424    1.0000 </r>
       <r>   -4.3414    1.0000 </r>
       <r>   -4.3346    1.0000 </r>
       <r>   -4.2309    1.0000 </r>
       <r>   -4.1955    1.0000 </r>
       <r>   -4.1834    1.0000 </r>
       <r>   -4.1173    1.0000 </r>
       <r>   -4.0679    1.0000 </r>
       <r>   -4.0619    1.0000 </r>
       <r>   -3.9521    1.0000 </r>
       <r>   -3.9201    1.0000 </r>
       <r>   -3.8851    1.0000 </r>
       <r>   -3.8566    1.0000 </r>
       <r>   -3.8473    1.0000 </r>
       <r>   -3.8225    1.0000 </r>
       <r>   -3.8014    1.0000 </r>
       <r>   -3.7646    1.0000 </r>
       <r>   -3.7354    1.0000 </r>
       <r>   -3.6524    1.0000 </r>
       <r>   -3.6362    1.0000 </r>
       <r>   -3.5926    1.0000 </r>
       <r>   -3.5726    1.0000 </r>
       <r>   -3.5463    1.0000 </r>
       <r>   -3.4871    1.0000 </r>
       <r>   -3.4476    1.0000 </r>
       <r>   -3.4257    1.0000 </r>
       <r>   -3.3759    1.0000 </r>
       <r>   -3.3724    1.0000 </r>
       <r>   -3.3637    1.0000 </r>
       <r>   -3.3606    1.0000 </r>
       <r>   -3.3127    1.0000 </r>
       <r>   -3.3029    1.0000 </r>
       <r>   -3.2791    1.0000 </r>
       <r>   -3.2616    1.0000 </r>
       <r>   -3.2360    1.0000 </r>
       <r>   -3.1731    1.0000 </r>
       <r>   -3.1721    1.0000 </r>
       <r>   -3.1580    1.0000 </r>
       <r>   -3.1210    1.0000 </r>
       <r>   -3.0822    1.0000 </r>
       <r>   -3.0453    1.0000 </r>
       <r>   -3.0171    1.0000 </r>
       <r>   -2.9357    1.0000 </r>
       <r>   -2.9191    1.0000 </r>
       <r>   -2.8822    1.0000 </r>
       <r>   -2.8549    1.0000 </r>
       <r>   -2.8381    1.0000 </r>
       <r>   -2.8180    1.0000 </r>
       <r>   -2.7765    1.0000 </r>
       <r>   -2.7658    1.0000 </r>
       <r>   -2.7221    1.0000 </r>
       <r>   -2.7146    1.0000 </r>
       <r>   -2.6997    1.0000 </r>
       <r>   -2.6759    1.0000 </r>
       <r>   -2.6226    1.0000 </r>
       <r>   -2.6122    1.0000 </r>
       <r>   -2.5766    1.0000 </r>
       <r>   -2.5383    1.0000 </r>
       <r>   -2.5105    1.0000 </r>
       <r>   -2.4821    1.0000 </r>
       <r>   -2.4465    1.0000 </r>
       <r>   -2.3488    1.0000 </r>
       <r>   -2.3236    1.0000 </r>
       <r>   -2.3208    1.0000 </r>
       <r>   -2.2819    1.0000 </r>
       <r>   -2.2768    1.0000 </r>
       <r>   -2.2443    1.0000 </r>
       <r>   -2.2003    1.0000 </r>
       <r>   -1.8175    1.0000 </r>
       <r>   -1.2931    1.0006 </r>
       <r>   -1.0104    1.0354 </r>
       <r>   -0.8694    0.8910 </r>
       <r>   -0.5755   -0.0163 </r>
       <r>   -0.4837   -0.0322 </r>
       <r>    0.0257   -0.0000 </r>
       <r>    0.4630   -0.0000 </r>
       <r>    0.5775   -0.0000 </r>
       <r>    1.0248   -0.0000 </r>
       <r>    1.8907   -0.0000 </r>
       <r>    1.9723   -0.0000 </r>
       <r>    2.5547   -0.0000 </r>
       <r>    3.3005   -0.0000 </r>
       <r>    3.6519   -0.0000 </r>
       <r>    4.3402   -0.0000 </r>
       <r>    4.6084   -0.0000 </r>
       <r>    4.8006    0.0000 </r>
       <r>    4.9043    0.0000 </r>
       <r>    5.0551    0.0000 </r>
       <r>    5.5788    0.0000 </r>
       <r>    5.6417    0.0000 </r>
       <r>    5.7854    0.0000 </r>
      </set>
      <set comment="kpoint 4">
       <r>  -24.2504    1.0000 </r>
       <r>  -11.0582    1.0000 </r>
       <r>   -8.9559    1.0000 </r>
       <r>   -8.1842    1.0000 </r>
       <r>   -7.4720    1.0000 </r>
       <r>   -7.4013    1.0000 </r>
       <r>   -7.2728    1.0000 </r>
       <r>   -5.9229    1.0000 </r>
       <r>   -5.6368    1.0000 </r>
       <r>   -5.3595    1.0000 </r>
       <r>   -5.2778    1.0000 </r>
       <r>   -5.2504    1.0000 </r>
       <r>   -5.2442    1.0000 </r>
       <r>   -5.0954    1.0000 </r>
       <r>   -5.0809    1.0000 </r>
       <r>   -4.9402    1.0000 </r>
       <r>   -4.8364    1.0000 </r>
       <r>   -4.7618    1.0000 </r>
       <r>   -4.7162    1.0000 </r>
       <r>   -4.6990    1.0000 </r>
       <r>   -4.6914    1.0000 </r>
       <r>   -4.6471    1.0000 </r>
       <r>   -4.6261    1.0000 </r>
       <r>   -4.5718    1.0000 </r>
       <r>   -4.3694    1.0000 </r>
       <r>   -4.3654    1.0000 </r>
       <r>   -4.3308    1.0000 </r>
       <r>   -3.9664    1.0000 </r>
       <r>   -3.9659    1.0000 </r>
       <r>   -3.8990    1.0000 </r>
       <r>   -3.8473    1.0000 </r>
       <r>   -3.7933    1.0000 </r>
       <r>   -3.7002    1.0000 </r>
       <r>   -3.6963    1.0000 </r>
       <r>   -3.6459    1.0000 </r>
       <r>   -3.6291    1.0000 </r>
       <r>   -3.6197    1.0000 </r>
       <r>   -3.5940    1.0000 </r>
       <r>   -3.5906    1.0000 </r>
       <r>   -3.5787    1.0000 </r>
       <r>   -3.5541    1.0000 </r>
       <r>   -3.5269    1.0000 </r>
       <r>   -3.5129    1.0000 </r>
       <r>   -3.4816    1.0000 </r>
       <r>   -3.4508    1.0000 </r>
       <r>   -3.4387    1.0000 </r>
       <r>   -3.4283    1.0000 </r>
       <r>   -3.4243    1.0000 </r>
       <r>   -3.3981    1.0000 </r>
       <r>   -3.3571    1.0000 </r>
       <r>   -3.3281    1.0000 </r>
       <r>   -3.2412    1.0000 </r>
       <r>   -3.2298    1.0000 </r>
       <r>   -3.1920    1.0000 </r>
       <r>   -3.1181    1.0000 </r>
       <r>   -3.0820    1.0000 </r>
       <r>   -2.9798    1.0000 </r>
       <r>   -2.9753    1.0000 </r>
       <r>   -2.9471    1.0000 </r>
       <r>   -2.8815    1.0000 </r>
       <r>   -2.8244    1.0000 </r>
       <r>   -2.8077    1.0000 </r>
       <r>   -2.7907    1.0000 </r>
       <r>   -2.7685    1.0000 </r>
       <r>   -2.7164    1.0000 </r>
       <r>   -2.7029    1.0000 </r>
       <r>   -2.6679    1.0000 </r>
       <r>   -2.6602    1.0000 </r>
       <r>   -2.6003    1.0000 </r>
       <r>   -2.5687    1.0000 </r>
       <r>   -2.5306    1.0000 </r>
       <r>   -2.5057    1.0000 </r>
       <r>   -2.4835    1.0000 </r>
       <r>   -2.4494    1.0000 </r>
       <r>   -2.4493    1.0000 </r>
       <r>   -2.4289    1.0000 </r>
       <r>   -2.4198    1.0000 </r>
       <r>   -2.3935    1.0000 </r>
       <r>   -2.3827    1.0000 </r>
       <r>   -2.3599    1.0000 </r>
       <r>   -2.3439    1.0000 </r>
       <r>   -2.3133    1.0000 </r>
       <r>   -2.3088    1.0000 </r>
       <r>   -2.2791    1.0000 </r>
       <r>   -2.2769    1.0000 </r>
       <r>   -2.2407    1.0000 </r>
       <r>   -2.2185    1.0000 </r>
       <r>   -2.2054    1.0000 </r>
       <r>   -2.0244    1.0000 </r>
       <r>   -1.6929    1.0000 </r>
       <r>   -1.1096    1.0168 </r>
       <r>   -1.0002    1.0353 </r>
       <r>   -0.8093    0.6961 </r>
       <r>   -0.5025   -0.0348 </r>
       <r>   -0.4650   -0.0284 </r>
       <r>   -0.2815   -0.0018 </r>
       <r>    0.3894   -0.0000 </r>
       <r>    0.4853   -0.0000 </r>
       <r>    1.0881   -0.0000 </r>
       <r>    1.4314   -0.0000 </r>
       <r>    1.6107   -0.0000 </r>
       <r>    1.9730   -0.0000 </r>
       <r>    2.1164   -0.0000 </r>
       <r>    3.2945   -0.0000 </r>
       <r>    3.6311   -0.0000 </r>
       <r>    3.7658   -0.0000 </r>
       <r>    3.7711   -0.0000 </r>
       <r>    4.0190   -0.0000 </r>
       <r>    4.1326   -0.0000 </r>
       <r>    4.6459   -0.0000 </r>
       <r>    4.7474    0.0000 </r>
       <r>    4.9576    0.0000 </r>
      </set>
      <set comment="kpoint 5">
       <r>  -24.2504    1.0000 </r>
       <r>  -11.0582    1.0000 </r>
       <r>   -8.9559    1.0000 </r>
       <r>   -8.1842    1.0000 </r>
       <r>   -7.4725    1.0000 </r>
       <r>   -7.4009    1.0000 </r>
       <r>   -7.2729    1.0000 </r>
       <r>   -5.9229    1.0000 </r>
       <r>   -5.6369    1.0000 </r>
       <r>   -5.3595    1.0000 </r>
       <r>   -5.2778    1.0000 </r>
       <r>   -5.2504    1.0000 </r>
       <r>   -5.2442    1.0000 </r>
       <r>   -5.0954    1.0000 </r>
       <r>   -5.0809    1.0000 </r>
       <r>   -4.9402    1.0000 </r>
       <r>   -4.8364    1.0000 </r>
       <r>   -4.7618    1.0000 </r>
       <r>   -4.7161    1.0000 </r>
       <r>   -4.6990    1.0000 </r>
       <r>   -4.6915    1.0000 </r>
       <r>   -4.6471    1.0000 </r>
       <r>   -4.6262    1.0000 </r>
       <r>   -4.5718    1.0000 </r>
       <r>   -4.3694    1.0000 </r>
       <r>   -4.3655    1.0000 </r>
       <r>   -4.3308    1.0000 </r>
       <r>   -3.9664    1.0000 </r>
       <r>   -3.9659    1.0000 </r>
       <r>   -3.8990    1.0000 </r>
       <r>   -3.8473    1.0000 </r>
       <r>   -3.7932    1.0000 </r>
       <r>   -3.7002    1.0000 </r>
       <r>   -3.6963    1.0000 </r>
       <r>   -3.6459    1.0000 </r>
       <r>   -3.6291    1.0000 </r>
       <r>   -3.6197    1.0000 </r>
       <r>   -3.5940    1.0000 </r>
       <r>   -3.5905    1.0000 </r>
       <r>   -3.5786    1.0000 </r>
       <r>   -3.5540    1.0000 </r>
       <r>   -3.5269    1.0000 </r>
       <r>   -3.5129    1.0000 </r>
       <r>   -3.4817    1.0000 </r>
       <r>   -3.4507    1.0000 </r>
       <r>   -3.4387    1.0000 </r>
       <r>   -3.4282    1.0000 </r>
       <r>   -3.4244    1.0000 </r>
       <r>   -3.3981    1.0000 </r>
       <r>   -3.3571    1.0000 </r>
       <r>   -3.3280    1.0000 </r>
       <r>   -3.2413    1.0000 </r>
       <r>   -3.2298    1.0000 </r>
       <r>   -3.1921    1.0000 </r>
       <r>   -3.1181    1.0000 </r>
       <r>   -3.0820    1.0000 </r>
       <r>   -2.9798    1.0000 </r>
       <r>   -2.9753    1.0000 </r>
       <r>   -2.9471    1.0000 </r>
       <r>   -2.8815    1.0000 </r>
       <r>   -2.8244    1.0000 </r>
       <r>   -2.8077    1.0000 </r>
       <r>   -2.7906    1.0000 </r>
       <r>   -2.7685    1.0000 </r>
       <r>   -2.7164    1.0000 </r>
       <r>   -2.7029    1.0000 </r>
       <r>   -2.6679    1.0000 </r>
       <r>   -2.6602    1.0000 </r>
       <r>   -2.6003    1.0000 </r>
       <r>   -2.5688    1.0000 </r>
       <r>   -2.5306    1.0000 </r>
       <r>   -2.5057    1.0000 </r>
       <r>   -2.4835    1.0000 </r>
       <r>   -2.4494    1.0000 </r>
       <r>   -2.4493    1.0000 </r>
       <r>   -2.4290    1.0000 </r>
       <r>   -2.4198    1.0000 </r>
       <r>   -2.3935    1.0000 </r>
       <r>   -2.3827    1.0000 </r>
       <r>   -2.3599    1.0000 </r>
       <r>   -2.3439    1.0000 </r>
       <r>   -2.3134    1.0000 </r>
       <r>   -2.3088    1.0000 </r>
       <r>   -2.2790    1.0000 </r>
       <r>   -2.2770    1.0000 </r>
       <r>   -2.2406    1.0000 </r>
       <r>   -2.2186    1.0000 </r>
       <r>   -2.2053    1.0000 </r>
       <r>   -2.0244    1.0000 </r>
       <r>   -1.6929    1.0000 </r>
       <r>   -1.1095    1.0168 </r>
       <r>   -1.0001    1.0353 </r>
       <r>   -0.8093    0.6961 </r>
       <r>   -0.5024   -0.0348 </r>
       <r>   -0.4651   -0.0285 </r>
       <r>   -0.2814   -0.0018 </r>
       <r>    0.3895   -0.0000 </r>
       <r>    0.4855   -0.0000 </r>
       <r>    1.0880   -0.0000 </r>
       <r>    1.4315   -0.0000 </r>
       <r>    1.6107   -0.0000 </r>
       <r>    1.9729   -0.0000 </r>
       <r>    2.1161   -0.0000 </r>
       <r>    3.2946   -0.0000 </r>
       <r>    3.6314   -0.0000 </r>
       <r>    3.7656   -0.0000 </r>
       <r>    3.7710   -0.0000 </r>
       <r>    4.0189   -0.0000 </r>
       <r>    4.1329   -0.0000 </r>
       <r>    4.6459   -0.0000 </r>
       <r>    4.7474    0.0000 </r>
       <r>    4.9577    0.0000 </r>
      </set>
      <set comment="kpoint 6">
       <r>  -24.2501    1.0000 </r>
       <r>  -10.9944    1.0000 </r>
       <r>   -8.4381    1.0000 </r>
       <r>   -7.9577    1.0000 </r>
       <r>   -7.5166    1.0000 </r>
       <r>   -7.4265    1.0000 </r>
       <r>   -6.8920    1.0000 </r>
       <r>   -5.9612    1.0000 </r>
       <r>   -5.9550    1.0000 </r>
       <r>   -5.5480    1.0000 </r>
       <r>   -5.3742    1.0000 </r>
       <r>   -5.3139    1.0000 </r>
       <r>   -5.0104    1.0000 </r>
       <r>   -4.8700    1.0000 </r>
       <r>   -4.8660    1.0000 </r>
       <r>   -4.8279    1.0000 </r>
       <r>   -4.7855    1.0000 </r>
       <r>   -4.5760    1.0000 </r>
       <r>   -4.5683    1.0000 </r>
       <r>   -4.5619    1.0000 </r>
       <r>   -4.5033    1.0000 </r>
       <r>   -4.4751    1.0000 </r>
       <r>   -4.4392    1.0000 </r>
       <r>   -4.4283    1.0000 </r>
       <r>   -4.2445    1.0000 </r>
       <r>   -4.2428    1.0000 </r>
       <r>   -4.2214    1.0000 </r>
       <r>   -4.1055    1.0000 </r>
       <r>   -4.0280    1.0000 </r>
       <r>   -3.9819    1.0000 </r>
       <r>   -3.9550    1.0000 </r>
       <r>   -3.9261    1.0000 </r>
       <r>   -3.8388    1.0000 </r>
       <r>   -3.8157    1.0000 </r>
       <r>   -3.8050    1.0000 </r>
       <r>   -3.7802    1.0000 </r>
       <r>   -3.7557    1.0000 </r>
       <r>   -3.7227    1.0000 </r>
       <r>   -3.6469    1.0000 </r>
       <r>   -3.6256    1.0000 </r>
       <r>   -3.5986    1.0000 </r>
       <r>   -3.5659    1.0000 </r>
       <r>   -3.5540    1.0000 </r>
       <r>   -3.5380    1.0000 </r>
       <r>   -3.5023    1.0000 </r>
       <r>   -3.4637    1.0000 </r>
       <r>   -3.4182    1.0000 </r>
       <r>   -3.4094    1.0000 </r>
       <r>   -3.3825    1.0000 </r>
       <r>   -3.3536    1.0000 </r>
       <r>   -3.3455    1.0000 </r>
       <r>   -3.3253    1.0000 </r>
       <r>   -3.2881    1.0000 </r>
       <r>   -3.2513    1.0000 </r>
       <r>   -3.2246    1.0000 </r>
       <r>   -3.1745    1.0000 </r>
       <r>   -3.1669    1.0000 </r>
       <r>   -3.1173    1.0000 </r>
       <r>   -3.0909    1.0000 </r>
       <r>   -3.0542    1.0000 </r>
       <r>   -3.0349    1.0000 </r>
       <r>   -3.0153    1.0000 </r>
       <r>   -2.9917    1.0000 </r>
       <r>   -2.9472    1.0000 </r>
       <r>   -2.9216    1.0000 </r>
       <r>   -2.8365    1.0000 </r>
       <r>   -2.8285    1.0000 </r>
       <r>   -2.7831    1.0000 </r>
       <r>   -2.7732    1.0000 </r>
       <r>   -2.7444    1.0000 </r>
       <r>   -2.6914    1.0000 </r>
       <r>   -2.6678    1.0000 </r>
       <r>   -2.6470    1.0000 </r>
       <r>   -2.6350    1.0000 </r>
       <r>   -2.6069    1.0000 </r>
       <r>   -2.5515    1.0000 </r>
       <r>   -2.4956    1.0000 </r>
       <r>   -2.4710    1.0000 </r>
       <r>   -2.4529    1.0000 </r>
       <r>   -2.4139    1.0000 </r>
       <r>   -2.4011    1.0000 </r>
       <r>   -2.3891    1.0000 </r>
       <r>   -2.3604    1.0000 </r>
       <r>   -2.3382    1.0000 </r>
       <r>   -2.3249    1.0000 </r>
       <r>   -2.2958    1.0000 </r>
       <r>   -2.2559    1.0000 </r>
       <r>   -2.1174    1.0000 </r>
       <r>   -2.0892    1.0000 </r>
       <r>   -1.9884    1.0000 </r>
       <r>   -1.9020    1.0000 </r>
       <r>   -1.5047    1.0000 </r>
       <r>   -0.9347    1.0051 </r>
       <r>   -0.7812    0.5831 </r>
       <r>    0.1102   -0.0000 </r>
       <r>    0.5604   -0.0000 </r>
       <r>    0.7457   -0.0000 </r>
       <r>    0.9041   -0.0000 </r>
       <r>    1.2199   -0.0000 </r>
       <r>    1.5207   -0.0000 </r>
       <r>    2.0059   -0.0000 </r>
       <r>    2.2520   -0.0000 </r>
       <r>    2.6240   -0.0000 </r>
       <r>    3.4212   -0.0000 </r>
       <r>    3.9526   -0.0000 </r>
       <r>    4.1777   -0.0000 </r>
       <r>    4.3874   -0.0000 </r>
       <r>    4.6225   -0.0000 </r>
       <r>    5.2239    0.0000 </r>
       <r>    5.2993    0.0000 </r>
       <r>    5.3702    0.0000 </r>
       <r>    5.5703    0.0000 </r>
      </set>
      <set comment="kpoint 7">
       <r>  -24.2504    1.0000 </r>
       <r>  -10.9562    1.0000 </r>
       <r>   -8.0077    1.0000 </r>
       <r>   -7.6210    1.0000 </r>
       <r>   -7.4581    1.0000 </r>
       <r>   -7.1892    1.0000 </r>
       <r>   -7.1583    1.0000 </r>
       <r>   -6.1941    1.0000 </r>
       <r>   -6.1057    1.0000 </r>
       <r>   -6.0059    1.0000 </r>
       <r>   -5.3495    1.0000 </r>
       <r>   -5.0300    1.0000 </r>
       <r>   -4.9255    1.0000 </r>
       <r>   -4.7204    1.0000 </r>
       <r>   -4.6413    1.0000 </r>
       <r>   -4.5835    1.0000 </r>
       <r>   -4.5667    1.0000 </r>
       <r>   -4.5564    1.0000 </r>
       <r>   -4.4986    1.0000 </r>
       <r>   -4.3916    1.0000 </r>
       <r>   -4.3578    1.0000 </r>
       <r>   -4.3038    1.0000 </r>
       <r>   -4.2804    1.0000 </r>
       <r>   -4.2741    1.0000 </r>
       <r>   -4.2376    1.0000 </r>
       <r>   -4.2309    1.0000 </r>
       <r>   -4.1820    1.0000 </r>
       <r>   -4.1255    1.0000 </r>
       <r>   -4.0924    1.0000 </r>
       <r>   -4.0594    1.0000 </r>
       <r>   -4.0498    1.0000 </r>
       <r>   -4.0358    1.0000 </r>
       <r>   -4.0047    1.0000 </r>
       <r>   -3.9698    1.0000 </r>
       <r>   -3.9307    1.0000 </r>
       <r>   -3.8716    1.0000 </r>
       <r>   -3.8533    1.0000 </r>
       <r>   -3.8356    1.0000 </r>
       <r>   -3.7799    1.0000 </r>
       <r>   -3.7662    1.0000 </r>
       <r>   -3.7215    1.0000 </r>
       <r>   -3.6819    1.0000 </r>
       <r>   -3.6494    1.0000 </r>
       <r>   -3.6375    1.0000 </r>
       <r>   -3.6078    1.0000 </r>
       <r>   -3.5903    1.0000 </r>
       <r>   -3.5418    1.0000 </r>
       <r>   -3.5018    1.0000 </r>
       <r>   -3.4830    1.0000 </r>
       <r>   -3.3898    1.0000 </r>
       <r>   -3.3836    1.0000 </r>
       <r>   -3.3683    1.0000 </r>
       <r>   -3.3430    1.0000 </r>
       <r>   -3.3258    1.0000 </r>
       <r>   -3.2762    1.0000 </r>
       <r>   -3.2455    1.0000 </r>
       <r>   -3.1795    1.0000 </r>
       <r>   -3.1711    1.0000 </r>
       <r>   -3.1392    1.0000 </r>
       <r>   -3.0798    1.0000 </r>
       <r>   -3.0528    1.0000 </r>
       <r>   -3.0258    1.0000 </r>
       <r>   -2.9837    1.0000 </r>
       <r>   -2.9462    1.0000 </r>
       <r>   -2.9282    1.0000 </r>
       <r>   -2.8739    1.0000 </r>
       <r>   -2.8663    1.0000 </r>
       <r>   -2.8579    1.0000 </r>
       <r>   -2.8017    1.0000 </r>
       <r>   -2.7983    1.0000 </r>
       <r>   -2.7703    1.0000 </r>
       <r>   -2.7341    1.0000 </r>
       <r>   -2.6976    1.0000 </r>
       <r>   -2.6643    1.0000 </r>
       <r>   -2.6243    1.0000 </r>
       <r>   -2.6157    1.0000 </r>
       <r>   -2.5836    1.0000 </r>
       <r>   -2.5542    1.0000 </r>
       <r>   -2.5178    1.0000 </r>
       <r>   -2.5132    1.0000 </r>
       <r>   -2.4875    1.0000 </r>
       <r>   -2.4485    1.0000 </r>
       <r>   -2.4095    1.0000 </r>
       <r>   -2.4005    1.0000 </r>
       <r>   -2.3752    1.0000 </r>
       <r>   -2.3499    1.0000 </r>
       <r>   -2.3352    1.0000 </r>
       <r>   -2.2898    1.0000 </r>
       <r>   -2.1538    1.0000 </r>
       <r>   -1.9861    1.0000 </r>
       <r>   -1.8286    1.0000 </r>
       <r>   -1.7523    1.0000 </r>
       <r>   -1.1052    1.0177 </r>
       <r>   -0.5790   -0.0135 </r>
       <r>   -0.1426   -0.0001 </r>
       <r>    0.6324   -0.0000 </r>
       <r>    0.9100   -0.0000 </r>
       <r>    1.2704   -0.0000 </r>
       <r>    1.5403   -0.0000 </r>
       <r>    1.9703   -0.0000 </r>
       <r>    2.4190   -0.0000 </r>
       <r>    2.9584   -0.0000 </r>
       <r>    3.0252   -0.0000 </r>
       <r>    3.7867   -0.0000 </r>
       <r>    3.9141   -0.0000 </r>
       <r>    4.1016   -0.0000 </r>
       <r>    4.7458    0.0000 </r>
       <r>    4.9926    0.0000 </r>
       <r>    5.1910    0.0000 </r>
       <r>    5.3269    0.0000 </r>
       <r>    5.7729    0.0000 </r>
       <r>    5.7959    0.0000 </r>
      </set>
      <set comment="kpoint 8">
       <r>  -24.2502    1.0000 </r>
       <r>  -10.9944    1.0000 </r>
       <r>   -8.4381    1.0000 </r>
       <r>   -7.9577    1.0000 </r>
       <r>   -7.5160    1.0000 </r>
       <r>   -7.4271    1.0000 </r>
       <r>   -6.8920    1.0000 </r>
       <r>   -5.9612    1.0000 </r>
       <r>   -5.9550    1.0000 </r>
       <r>   -5.5479    1.0000 </r>
       <r>   -5.3742    1.0000 </r>
       <r>   -5.3139    1.0000 </r>
       <r>   -5.0104    1.0000 </r>
       <r>   -4.8700    1.0000 </r>
       <r>   -4.8660    1.0000 </r>
       <r>   -4.8279    1.0000 </r>
       <r>   -4.7855    1.0000 </r>
       <r>   -4.5760    1.0000 </r>
       <r>   -4.5684    1.0000 </r>
       <r>   -4.5618    1.0000 </r>
       <r>   -4.5033    1.0000 </r>
       <r>   -4.4751    1.0000 </r>
       <r>   -4.4392    1.0000 </r>
       <r>   -4.4283    1.0000 </r>
       <r>   -4.2445    1.0000 </r>
       <r>   -4.2428    1.0000 </r>
       <r>   -4.2214    1.0000 </r>
       <r>   -4.1055    1.0000 </r>
       <r>   -4.0280    1.0000 </r>
       <r>   -3.9819    1.0000 </r>
       <r>   -3.9551    1.0000 </r>
       <r>   -3.9261    1.0000 </r>
       <r>   -3.8389    1.0000 </r>
       <r>   -3.8157    1.0000 </r>
       <r>   -3.8050    1.0000 </r>
       <r>   -3.7803    1.0000 </r>
       <r>   -3.7557    1.0000 </r>
       <r>   -3.7227    1.0000 </r>
       <r>   -3.6469    1.0000 </r>
       <r>   -3.6256    1.0000 </r>
       <r>   -3.5986    1.0000 </r>
       <r>   -3.5659    1.0000 </r>
       <r>   -3.5540    1.0000 </r>
       <r>   -3.5381    1.0000 </r>
       <r>   -3.5023    1.0000 </r>
       <r>   -3.4637    1.0000 </r>
       <r>   -3.4181    1.0000 </r>
       <r>   -3.4094    1.0000 </r>
       <r>   -3.3825    1.0000 </r>
       <r>   -3.3536    1.0000 </r>
       <r>   -3.3455    1.0000 </r>
       <r>   -3.3253    1.0000 </r>
       <r>   -3.2882    1.0000 </r>
       <r>   -3.2512    1.0000 </r>
       <r>   -3.2246    1.0000 </r>
       <r>   -3.1744    1.0000 </r>
       <r>   -3.1669    1.0000 </r>
       <r>   -3.1172    1.0000 </r>
       <r>   -3.0909    1.0000 </r>
       <r>   -3.0542    1.0000 </r>
       <r>   -3.0348    1.0000 </r>
       <r>   -3.0153    1.0000 </r>
       <r>   -2.9917    1.0000 </r>
       <r>   -2.9471    1.0000 </r>
       <r>   -2.9216    1.0000 </r>
       <r>   -2.8365    1.0000 </r>
       <r>   -2.8285    1.0000 </r>
       <r>   -2.7830    1.0000 </r>
       <r>   -2.7731    1.0000 </r>
       <r>   -2.7443    1.0000 </r>
       <r>   -2.6913    1.0000 </r>
       <r>   -2.6678    1.0000 </r>
       <r>   -2.6469    1.0000 </r>
       <r>   -2.6350    1.0000 </r>
       <r>   -2.6070    1.0000 </r>
       <r>   -2.5515    1.0000 </r>
       <r>   -2.4957    1.0000 </r>
       <r>   -2.4710    1.0000 </r>
       <r>   -2.4530    1.0000 </r>
       <r>   -2.4139    1.0000 </r>
       <r>   -2.4011    1.0000 </r>
       <r>   -2.3891    1.0000 </r>
       <r>   -2.3604    1.0000 </r>
       <r>   -2.3382    1.0000 </r>
       <r>   -2.3249    1.0000 </r>
       <r>   -2.2958    1.0000 </r>
       <r>   -2.2559    1.0000 </r>
       <r>   -2.1174    1.0000 </r>
       <r>   -2.0892    1.0000 </r>
       <r>   -1.9884    1.0000 </r>
       <r>   -1.9021    1.0000 </r>
       <r>   -1.5047    1.0000 </r>
       <r>   -0.9347    1.0051 </r>
       <r>   -0.7812    0.5832 </r>
       <r>    0.1101   -0.0000 </r>
       <r>    0.5604   -0.0000 </r>
       <r>    0.7458   -0.0000 </r>
       <r>    0.9041   -0.0000 </r>
       <r>    1.2196   -0.0000 </r>
       <r>    1.5206   -0.0000 </r>
       <r>    2.0057   -0.0000 </r>
       <r>    2.2518   -0.0000 </r>
       <r>    2.6246   -0.0000 </r>
       <r>    3.4214   -0.0000 </r>
       <r>    3.9524   -0.0000 </r>
       <r>    4.1779   -0.0000 </r>
       <r>    4.3874   -0.0000 </r>
       <r>    4.6224   -0.0000 </r>
       <r>    5.2239    0.0000 </r>
       <r>    5.2989    0.0000 </r>
       <r>    5.3706    0.0000 </r>
       <r>    5.5697    0.0000 </r>
      </set>
      <set comment="kpoint 9">
       <r>  -24.2504    1.0000 </r>
       <r>  -10.9789    1.0000 </r>
       <r>   -8.2305    1.0000 </r>
       <r>   -7.8557    1.0000 </r>
       <r>   -7.5565    1.0000 </r>
       <r>   -7.4093    1.0000 </r>
       <r>   -6.7770    1.0000 </r>
       <r>   -6.6664    1.0000 </r>
       <r>   -5.8327    1.0000 </r>
       <r>   -5.3633    1.0000 </r>
       <r>   -5.1216    1.0000 </r>
       <r>   -5.1080    1.0000 </r>
       <r>   -4.9649    1.0000 </r>
       <r>   -4.9154    1.0000 </r>
       <r>   -4.8827    1.0000 </r>
       <r>   -4.8551    1.0000 </r>
       <r>   -4.6659    1.0000 </r>
       <r>   -4.6543    1.0000 </r>
       <r>   -4.6010    1.0000 </r>
       <r>   -4.4917    1.0000 </r>
       <r>   -4.4714    1.0000 </r>
       <r>   -4.4424    1.0000 </r>
       <r>   -4.3414    1.0000 </r>
       <r>   -4.3346    1.0000 </r>
       <r>   -4.2309    1.0000 </r>
       <r>   -4.1955    1.0000 </r>
       <r>   -4.1834    1.0000 </r>
       <r>   -4.1173    1.0000 </r>
       <r>   -4.0679    1.0000 </r>
       <r>   -4.0619    1.0000 </r>
       <r>   -3.9521    1.0000 </r>
       <r>   -3.9201    1.0000 </r>
       <r>   -3.8851    1.0000 </r>
       <r>   -3.8566    1.0000 </r>
       <r>   -3.8474    1.0000 </r>
       <r>   -3.8225    1.0000 </r>
       <r>   -3.8014    1.0000 </r>
       <r>   -3.7646    1.0000 </r>
       <r>   -3.7354    1.0000 </r>
       <r>   -3.6524    1.0000 </r>
       <r>   -3.6362    1.0000 </r>
       <r>   -3.5925    1.0000 </r>
       <r>   -3.5726    1.0000 </r>
       <r>   -3.5463    1.0000 </r>
       <r>   -3.4871    1.0000 </r>
       <r>   -3.4476    1.0000 </r>
       <r>   -3.4257    1.0000 </r>
       <r>   -3.3759    1.0000 </r>
       <r>   -3.3724    1.0000 </r>
       <r>   -3.3637    1.0000 </r>
       <r>   -3.3606    1.0000 </r>
       <r>   -3.3127    1.0000 </r>
       <r>   -3.3029    1.0000 </r>
       <r>   -3.2791    1.0000 </r>
       <r>   -3.2616    1.0000 </r>
       <r>   -3.2360    1.0000 </r>
       <r>   -3.1731    1.0000 </r>
       <r>   -3.1721    1.0000 </r>
       <r>   -3.1581    1.0000 </r>
       <r>   -3.1210    1.0000 </r>
       <r>   -3.0822    1.0000 </r>
       <r>   -3.0453    1.0000 </r>
       <r>   -3.0171    1.0000 </r>
       <r>   -2.9357    1.0000 </r>
       <r>   -2.9191    1.0000 </r>
       <r>   -2.8822    1.0000 </r>
       <r>   -2.8549    1.0000 </r>
       <r>   -2.8381    1.0000 </r>
       <r>   -2.8180    1.0000 </r>
       <r>   -2.7765    1.0000 </r>
       <r>   -2.7658    1.0000 </r>
       <r>   -2.7221    1.0000 </r>
       <r>   -2.7146    1.0000 </r>
       <r>   -2.6997    1.0000 </r>
       <r>   -2.6759    1.0000 </r>
       <r>   -2.6226    1.0000 </r>
       <r>   -2.6122    1.0000 </r>
       <r>   -2.5766    1.0000 </r>
       <r>   -2.5383    1.0000 </r>
       <r>   -2.5105    1.0000 </r>
       <r>   -2.4821    1.0000 </r>
       <r>   -2.4466    1.0000 </r>
       <r>   -2.3488    1.0000 </r>
       <r>   -2.3236    1.0000 </r>
       <r>   -2.3208    1.0000 </r>
       <r>   -2.2818    1.0000 </r>
       <r>   -2.2768    1.0000 </r>
       <r>   -2.2443    1.0000 </r>
       <r>   -2.2003    1.0000 </r>
       <r>   -1.8175    1.0000 </r>
       <r>   -1.2930    1.0006 </r>
       <r>   -1.0103    1.0354 </r>
       <r>   -0.8694    0.8910 </r>
       <r>   -0.5755   -0.0163 </r>
       <r>   -0.4837   -0.0322 </r>
       <r>    0.0257   -0.0000 </r>
       <r>    0.4630   -0.0000 </r>
       <r>    0.5775   -0.0000 </r>
       <r>    1.0248   -0.0000 </r>
       <r>    1.8907   -0.0000 </r>
       <r>    1.9723   -0.0000 </r>
       <r>    2.5547   -0.0000 </r>
       <r>    3.3005   -0.0000 </r>
       <r>    3.6519   -0.0000 </r>
       <r>    4.3402   -0.0000 </r>
       <r>    4.6084   -0.0000 </r>
       <r>    4.8006    0.0000 </r>
       <r>    4.9043    0.0000 </r>
       <r>    5.0551    0.0000 </r>
       <r>    5.5788    0.0000 </r>
       <r>    5.6417    0.0000 </r>
       <r>    5.7854    0.0000 </r>
      </set>
      <set comment="kpoint 10">
       <r>  -24.2501    1.0000 </r>
       <r>  -10.9944    1.0000 </r>
       <r>   -8.4381    1.0000 </r>
       <r>   -7.9577    1.0000 </r>
       <r>   -7.5166    1.0000 </r>
       <r>   -7.4265    1.0000 </r>
       <r>   -6.8920    1.0000 </r>
       <r>   -5.9612    1.0000 </r>
       <r>   -5.9550    1.0000 </r>
       <r>   -5.5479    1.0000 </r>
       <r>   -5.3742    1.0000 </r>
       <r>   -5.3139    1.0000 </r>
       <r>   -5.0104    1.0000 </r>
       <r>   -4.8700    1.0000 </r>
       <r>   -4.8660    1.0000 </r>
       <r>   -4.8279    1.0000 </r>
       <r>   -4.7855    1.0000 </r>
       <r>   -4.5760    1.0000 </r>
       <r>   -4.5683    1.0000 </r>
       <r>   -4.5619    1.0000 </r>
       <r>   -4.5033    1.0000 </r>
       <r>   -4.4751    1.0000 </r>
       <r>   -4.4392    1.0000 </r>
       <r>   -4.4283    1.0000 </r>
       <r>   -4.2445    1.0000 </r>
       <r>   -4.2428    1.0000 </r>
       <r>   -4.2214    1.0000 </r>
       <r>   -4.1055    1.0000 </r>
       <r>   -4.0280    1.0000 </r>
       <r>   -3.9819    1.0000 </r>
       <r>   -3.9551    1.0000 </r>
       <r>   -3.9261    1.0000 </r>
       <r>   -3.8388    1.0000 </r>
       <r>   -3.8157    1.0000 </r>
       <r>   -3.8050    1.0000 </r>
       <r>   -3.7802    1.0000 </r>
       <r>   -3.7557    1.0000 </r>
       <r>   -3.7227    1.0000 </r>
       <r>   -3.6469    1.0000 </r>
       <r>   -3.6256    1.0000 </r>
       <r>   -3.5986    1.0000 </r>
       <r>   -3.5659    1.0000 </r>
       <r>   -3.5540    1.0000 </r>
       <r>   -3.5380    1.0000 </r>
       <r>   -3.5023    1.0000 </r>
       <r>   -3.4637    1.0000 </r>
       <r>   -3.4182    1.0000 </r>
       <r>   -3.4094    1.0000 </r>
       <r>   -3.3825    1.0000 </r>
       <r>   -3.3536    1.0000 </r>
       <r>   -3.3455    1.0000 </r>
       <r>   -3.3253    1.0000 </r>
       <r>   -3.2881    1.0000 </r>
       <r>   -3.2513    1.0000 </r>
       <r>   -3.2246    1.0000 </r>
       <r>   -3.1745    1.0000 </r>
       <r>   -3.1669    1.0000 </r>
       <r>   -3.1173    1.0000 </r>
       <r>   -3.0909    1.0000 </r>
       <r>   -3.0542    1.0000 </r>
       <r>   -3.0349    1.0000 </r>
       <r>   -3.0153    1.0000 </r>
       <r>   -2.9917    1.0000 </r>
       <r>   -2.9472    1.0000 </r>
       <r>   -2.9216    1.0000 </r>
       <r>   -2.8365    1.0000 </r>
       <r>   -2.8285    1.0000 </r>
       <r>   -2.7831    1.0000 </r>
       <r>   -2.7732    1.0000 </r>
       <r>   -2.7444    1.0000 </r>
       <r>   -2.6914    1.0000 </r>
       <r>   -2.6678    1.0000 </r>
       <r>   -2.6470    1.0000 </r>
       <r>   -2.6350    1.0000 </r>
       <r>   -2.6069    1.0000 </r>
       <r>   -2.5515    1.0000 </r>
       <r>   -2.4956    1.0000 </r>
       <r>   -2.4710    1.0000 </r>
       <r>   -2.4529    1.0000 </r>
       <r>   -2.4139    1.0000 </r>
       <r>   -2.4011    1.0000 </r>
       <r>   -2.3891    1.0000 </r>
       <r>   -2.3604    1.0000 </r>
       <r>   -2.3382    1.0000 </r>
       <r>   -2.3248    1.0000 </r>
       <r>   -2.2958    1.0000 </r>
       <r>   -2.2559    1.0000 </r>
       <r>   -2.1174    1.0000 </r>
       <r>   -2.0892    1.0000 </r>
       <r>   -1.9884    1.0000 </r>
       <r>   -1.9021    1.0000 </r>
       <r>   -1.5047    1.0000 </r>
       <r>   -0.9347    1.0051 </r>
       <r>   -0.7812    0.5831 </r>
       <r>    0.1102   -0.0000 </r>
       <r>    0.5604   -0.0000 </r>
       <r>    0.7457   -0.0000 </r>
       <r>    0.9041   -0.0000 </r>
       <r>    1.2199   -0.0000 </r>
       <r>    1.5207   -0.0000 </r>
       <r>    2.0059   -0.0000 </r>
       <r>    2.2520   -0.0000 </r>
       <r>    2.6240   -0.0000 </r>
       <r>    3.4212   -0.0000 </r>
       <r>    3.9526   -0.0000 </r>
       <r>    4.1777   -0.0000 </r>
       <r>    4.3874   -0.0000 </r>
       <r>    4.6225   -0.0000 </r>
       <r>    5.2239    0.0000 </r>
       <r>    5.2993    0.0000 </r>
       <r>    5.3702    0.0000 </r>
       <r>    5.5703    0.0000 </r>
      </set>
      <set comment="kpoint 11">
       <r>  -24.2503    1.0000 </r>
       <r>  -10.9789    1.0000 </r>
       <r>   -8.2305    1.0000 </r>
       <r>   -7.8557    1.0000 </r>
       <r>   -7.5571    1.0000 </r>
       <r>   -7.4089    1.0000 </r>
       <r>   -6.7771    1.0000 </r>
       <r>   -6.6664    1.0000 </r>
       <r>   -5.8328    1.0000 </r>
       <r>   -5.3634    1.0000 </r>
       <r>   -5.1216    1.0000 </r>
       <r>   -5.1079    1.0000 </r>
       <r>   -4.9649    1.0000 </r>
       <r>   -4.9154    1.0000 </r>
       <r>   -4.8827    1.0000 </r>
       <r>   -4.8551    1.0000 </r>
       <r>   -4.6659    1.0000 </r>
       <r>   -4.6544    1.0000 </r>
       <r>   -4.6009    1.0000 </r>
       <r>   -4.4918    1.0000 </r>
       <r>   -4.4715    1.0000 </r>
       <r>   -4.4424    1.0000 </r>
       <r>   -4.3415    1.0000 </r>
       <r>   -4.3347    1.0000 </r>
       <r>   -4.2310    1.0000 </r>
       <r>   -4.1956    1.0000 </r>
       <r>   -4.1833    1.0000 </r>
       <r>   -4.1173    1.0000 </r>
       <r>   -4.0679    1.0000 </r>
       <r>   -4.0619    1.0000 </r>
       <r>   -3.9521    1.0000 </r>
       <r>   -3.9200    1.0000 </r>
       <r>   -3.8851    1.0000 </r>
       <r>   -3.8566    1.0000 </r>
       <r>   -3.8473    1.0000 </r>
       <r>   -3.8225    1.0000 </r>
       <r>   -3.8014    1.0000 </r>
       <r>   -3.7646    1.0000 </r>
       <r>   -3.7354    1.0000 </r>
       <r>   -3.6524    1.0000 </r>
       <r>   -3.6362    1.0000 </r>
       <r>   -3.5926    1.0000 </r>
       <r>   -3.5726    1.0000 </r>
       <r>   -3.5463    1.0000 </r>
       <r>   -3.4871    1.0000 </r>
       <r>   -3.4476    1.0000 </r>
       <r>   -3.4258    1.0000 </r>
       <r>   -3.3759    1.0000 </r>
       <r>   -3.3723    1.0000 </r>
       <r>   -3.3637    1.0000 </r>
       <r>   -3.3606    1.0000 </r>
       <r>   -3.3127    1.0000 </r>
       <r>   -3.3030    1.0000 </r>
       <r>   -3.2791    1.0000 </r>
       <r>   -3.2616    1.0000 </r>
       <r>   -3.2359    1.0000 </r>
       <r>   -3.1730    1.0000 </r>
       <r>   -3.1722    1.0000 </r>
       <r>   -3.1582    1.0000 </r>
       <r>   -3.1211    1.0000 </r>
       <r>   -3.0821    1.0000 </r>
       <r>   -3.0453    1.0000 </r>
       <r>   -3.0171    1.0000 </r>
       <r>   -2.9358    1.0000 </r>
       <r>   -2.9191    1.0000 </r>
       <r>   -2.8822    1.0000 </r>
       <r>   -2.8550    1.0000 </r>
       <r>   -2.8381    1.0000 </r>
       <r>   -2.8180    1.0000 </r>
       <r>   -2.7765    1.0000 </r>
       <r>   -2.7658    1.0000 </r>
       <r>   -2.7222    1.0000 </r>
       <r>   -2.7146    1.0000 </r>
       <r>   -2.6997    1.0000 </r>
       <r>   -2.6759    1.0000 </r>
       <r>   -2.6226    1.0000 </r>
       <r>   -2.6123    1.0000 </r>
       <r>   -2.5767    1.0000 </r>
       <r>   -2.5384    1.0000 </r>
       <r>   -2.5105    1.0000 </r>
       <r>   -2.4821    1.0000 </r>
       <r>   -2.4465    1.0000 </r>
       <r>   -2.3488    1.0000 </r>
       <r>   -2.3235    1.0000 </r>
       <r>   -2.3209    1.0000 </r>
       <r>   -2.2818    1.0000 </r>
       <r>   -2.2767    1.0000 </r>
       <r>   -2.2441    1.0000 </r>
       <r>   -2.2002    1.0000 </r>
       <r>   -1.8175    1.0000 </r>
       <r>   -1.2930    1.0006 </r>
       <r>   -1.0102    1.0354 </r>
       <r>   -0.8693    0.8909 </r>
       <r>   -0.5754   -0.0163 </r>
       <r>   -0.4836   -0.0322 </r>
       <r>    0.0257   -0.0000 </r>
       <r>    0.4631   -0.0000 </r>
       <r>    0.5775   -0.0000 </r>
       <r>    1.0252   -0.0000 </r>
       <r>    1.8909   -0.0000 </r>
       <r>    1.9721   -0.0000 </r>
       <r>    2.5548   -0.0000 </r>
       <r>    3.2999   -0.0000 </r>
       <r>    3.6518   -0.0000 </r>
       <r>    4.3396   -0.0000 </r>
       <r>    4.6091   -0.0000 </r>
       <r>    4.8006    0.0000 </r>
       <r>    4.9044    0.0000 </r>
       <r>    5.0556    0.0000 </r>
       <r>    5.5800    0.0000 </r>
       <r>    5.6409    0.0000 </r>
       <r>    5.7861    0.0000 </r>
      </set>
      <set comment="kpoint 12">
       <r>  -24.2503    1.0000 </r>
       <r>  -10.9562    1.0000 </r>
       <r>   -8.0077    1.0000 </r>
       <r>   -7.6216    1.0000 </r>
       <r>   -7.4576    1.0000 </r>
       <r>   -7.1893    1.0000 </r>
       <r>   -7.1583    1.0000 </r>
       <r>   -6.1941    1.0000 </r>
       <r>   -6.1057    1.0000 </r>
       <r>   -6.0059    1.0000 </r>
       <r>   -5.3494    1.0000 </r>
       <r>   -5.0300    1.0000 </r>
       <r>   -4.9255    1.0000 </r>
       <r>   -4.7204    1.0000 </r>
       <r>   -4.6413    1.0000 </r>
       <r>   -4.5835    1.0000 </r>
       <r>   -4.5667    1.0000 </r>
       <r>   -4.5564    1.0000 </r>
       <r>   -4.4986    1.0000 </r>
       <r>   -4.3916    1.0000 </r>
       <r>   -4.3578    1.0000 </r>
       <r>   -4.3038    1.0000 </r>
       <r>   -4.2804    1.0000 </r>
       <r>   -4.2742    1.0000 </r>
       <r>   -4.2376    1.0000 </r>
       <r>   -4.2309    1.0000 </r>
       <r>   -4.1821    1.0000 </r>
       <r>   -4.1255    1.0000 </r>
       <r>   -4.0924    1.0000 </r>
       <r>   -4.0594    1.0000 </r>
       <r>   -4.0498    1.0000 </r>
       <r>   -4.0358    1.0000 </r>
       <r>   -4.0046    1.0000 </r>
       <r>   -3.9698    1.0000 </r>
       <r>   -3.9308    1.0000 </r>
       <r>   -3.8716    1.0000 </r>
       <r>   -3.8532    1.0000 </r>
       <r>   -3.8356    1.0000 </r>
       <r>   -3.7798    1.0000 </r>
       <r>   -3.7662    1.0000 </r>
       <r>   -3.7215    1.0000 </r>
       <r>   -3.6819    1.0000 </r>
       <r>   -3.6494    1.0000 </r>
       <r>   -3.6375    1.0000 </r>
       <r>   -3.6078    1.0000 </r>
       <r>   -3.5902    1.0000 </r>
       <r>   -3.5418    1.0000 </r>
       <r>   -3.5018    1.0000 </r>
       <r>   -3.4829    1.0000 </r>
       <r>   -3.3898    1.0000 </r>
       <r>   -3.3836    1.0000 </r>
       <r>   -3.3684    1.0000 </r>
       <r>   -3.3430    1.0000 </r>
[...]
        <r>  0.0001  0.0015  0.0000 </r>
       </set>
       <set comment="band 91">
        <r>  0.0079  0.0101  0.0775 </r>
        <r>  0.0068  0.0098  0.0528 </r>
        <r>  0.0153  0.0084  0.0705 </r>
        <r>  0.0153  0.0084  0.0705 </r>
        <r>  0.0035  0.0054  0.0482 </r>
        <r>  0.0035  0.0055  0.0482 </r>
        <r>  0.0007  0.0099  0.0195 </r>
        <r>  0.0086  0.0029  0.0379 </r>
        <r>  0.0011  0.0066  0.0170 </r>
        <r>  0.0081  0.0011  0.0354 </r>
        <r>  0.0017  0.0045  0.0338 </r>
        <r>  0.0017  0.0045  0.0339 </r>
        <r>  0.0061  0.0106  0.0561 </r>
        <r>  0.0078  0.0097  0.0272 </r>
        <r>  0.0163  0.0078  0.0359 </r>
        <r>  0.0163  0.0078  0.0359 </r>
        <r>  0.0003  0.0020  0.0004 </r>
        <r>  0.0000  0.0103  0.0000 </r>
       </set>
       <set comment="band 92">
        <r>  0.0169  0.0064  0.0480 </r>
        <r>  0.0326  0.0033  0.0346 </r>
        <r>  0.0018  0.0085  0.0206 </r>
        <r>  0.0018  0.0085  0.0206 </r>
        <r>  0.0032  0.0057  0.0341 </r>
        <r>  0.0032  0.0057  0.0341 </r>
        <r>  0.0044  0.0043  0.0719 </r>
        <r>  0.0020  0.0087  0.0682 </r>
        <r>  0.0002  0.0058  0.0682 </r>
        <r>  0.0012  0.0049  0.0645 </r>
        <r>  0.0121  0.0061  0.0272 </r>
        <r>  0.0121  0.0061  0.0272 </r>
        <r>  0.0180  0.0085  0.0587 </r>
        <r>  0.0217  0.0104  0.0133 </r>
        <r>  0.0052  0.0074  0.0236 </r>
        <r>  0.0052  0.0074  0.0236 </r>
        <r>  0.0001  0.0040  0.0007 </r>
        <r>  0.0000  0.0228  0.0000 </r>
       </set>
       <set comment="band 93">
        <r>  0.0262  0.0122  0.0296 </r>
        <r>  0.0037  0.0155  0.0235 </r>
        <r>  0.0212  0.0141  0.0302 </r>
        <r>  0.0212  0.0141  0.0302 </r>
        <r>  0.0083  0.0090  0.0352 </r>
        <r>  0.0083  0.0090  0.0352 </r>
        <r>  0.0006  0.0069  0.0209 </r>
        <r>  0.0056  0.0111  0.0347 </r>
        <r>  0.0074  0.0261  0.0147 </r>
        <r>  0.0078  0.0147  0.0313 </r>
        <r>  0.0102  0.0086  0.0515 </r>
        <r>  0.0102  0.0086  0.0515 </r>
        <r>  0.0106  0.0082  0.0321 </r>
        <r>  0.0001  0.0097  0.0342 </r>
        <r>  0.0128  0.0116  0.0368 </r>
        <r>  0.0128  0.0116  0.0368 </r>
        <r>  0.0083  0.0100  0.0007 </r>
        <r>  0.0002  0.0131  0.0000 </r>
       </set>
       <set comment="band 94">
        <r>  0.0029  0.0108  0.0172 </r>
        <r>  0.0124  0.0103  0.0250 </r>
        <r>  0.0210  0.0155  0.0189 </r>
        <r>  0.0210  0.0155  0.0189 </r>
        <r>  0.0125  0.0093  0.0215 </r>
        <r>  0.0125  0.0093  0.0215 </r>
        <r>  0.0235  0.0090  0.0235 </r>
        <r>  0.0021  0.0098  0.0127 </r>
        <r>  0.0178  0.0063  0.0348 </r>
        <r>  0.0002  0.0302  0.0129 </r>
        <r>  0.0008  0.0097  0.0359 </r>
        <r>  0.0008  0.0097  0.0359 </r>
        <r>  0.0020  0.0190  0.0215 </r>
        <r>  0.0087  0.0165  0.0350 </r>
        <r>  0.0195  0.0222  0.0362 </r>
        <r>  0.0195  0.0222  0.0362 </r>
        <r>  0.0075  0.0224  0.0016 </r>
        <r>  0.0004  0.0362  0.0002 </r>
       </set>
       <set comment="band 95">
        <r>  0.0115  0.0189  0.0160 </r>
        <r>  0.0243  0.0227  0.0151 </r>
        <r>  0.0026  0.0078  0.0234 </r>
        <r>  0.0026  0.0078  0.0234 </r>
        <r>  0.0139  0.0085  0.0124 </r>
        <r>  0.0139  0.0085  0.0124 </r>
        <r>  0.0157  0.0080  0.0123 </r>
        <r>  0.0239  0.0048  0.0194 </r>
        <r>  0.0003  0.0089  0.0220 </r>
        <r>  0.0002  0.0069  0.0180 </r>
        <r>  0.0218  0.0159  0.0204 </r>
        <r>  0.0218  0.0159  0.0204 </r>
        <r>  0.0004  0.0231  0.0240 </r>
        <r>  0.0064  0.0535  0.0049 </r>
        <r>  0.0036  0.0116  0.0312 </r>
        <r>  0.0036  0.0117  0.0312 </r>
        <r>  0.0003  0.0398  0.0021 </r>
        <r>  0.0000  0.0676  0.0006 </r>
       </set>
       <set comment="band 96">
        <r>  0.0152  0.0131  0.0101 </r>
        <r>  0.0071  0.0054  0.0124 </r>
        <r>  0.0059  0.0144  0.0092 </r>
        <r>  0.0059  0.0144  0.0092 </r>
        <r>  0.0188  0.0057  0.0108 </r>
        <r>  0.0188  0.0057  0.0108 </r>
        <r>  0.0083  0.0172  0.0139 </r>
        <r>  0.0024  0.0196  0.0064 </r>
        <r>  0.0114  0.0097  0.0192 </r>
        <r>  0.0077  0.0107  0.0156 </r>
        <r>  0.0015  0.0225  0.0192 </r>
        <r>  0.0015  0.0225  0.0192 </r>
        <r>  0.0083  0.0113  0.0248 </r>
        <r>  0.0148  0.0099  0.0336 </r>
        <r>  0.0080  0.0382  0.0289 </r>
        <r>  0.0080  0.0382  0.0290 </r>
        <r>  0.0016  0.0783  0.0025 </r>
        <r>  0.0002  0.0792  0.0013 </r>
       </set>
       <set comment="band 97">
        <r>  0.0004  0.0226  0.0176 </r>
        <r>  0.0007  0.0096  0.0123 </r>
        <r>  0.0116  0.0156  0.0136 </r>
        <r>  0.0116  0.0156  0.0136 </r>
        <r>  0.0059  0.0320  0.0185 </r>
        <r>  0.0059  0.0320  0.0185 </r>
        <r>  0.0065  0.0096  0.0300 </r>
        <r>  0.0364  0.0072  0.0172 </r>
        <r>  0.0015  0.0214  0.0479 </r>
        <r>  0.0320  0.0378  0.0119 </r>
        <r>  0.0205  0.0153  0.0259 </r>
        <r>  0.0205  0.0153  0.0259 </r>
        <r>  0.0159  0.0266  0.0193 </r>
        <r>  0.0006  0.0147  0.0299 </r>
        <r>  0.0173  0.0263  0.0207 </r>
        <r>  0.0173  0.0263  0.0207 </r>
        <r>  0.0049  0.0034  0.0001 </r>
        <r>  0.0000  0.0011  0.0000 </r>
       </set>
       <set comment="band 98">
        <r>  0.0133  0.0146  0.0243 </r>
        <r>  0.0059  0.0222  0.0314 </r>
        <r>  0.0096  0.0347  0.0190 </r>
        <r>  0.0096  0.0347  0.0190 </r>
        <r>  0.0172  0.0376  0.0309 </r>
        <r>  0.0172  0.0376  0.0309 </r>
        <r>  0.0225  0.0440  0.0240 </r>
        <r>  0.0037  0.0330  0.0416 </r>
        <r>  0.0241  0.0258  0.0123 </r>
        <r>  0.0011  0.0041  0.0209 </r>
        <r>  0.0030  0.0159  0.0121 </r>
        <r>  0.0030  0.0159  0.0121 </r>
        <r>  0.0054  0.0136  0.0043 </r>
        <r>  0.0015  0.0061  0.0077 </r>
        <r>  0.0103  0.0110  0.0144 </r>
        <r>  0.0103  0.0110  0.0144 </r>
        <r>  0.0054  0.0229  0.0005 </r>
        <r>  0.0001  0.0149  0.0004 </r>
       </set>
       <set comment="band 99">
        <r>  0.0015  0.0374  0.0080 </r>
        <r>  0.0043  0.0387  0.0058 </r>
        <r>  0.0005  0.0111  0.0211 </r>
        <r>  0.0005  0.0111  0.0211 </r>
        <r>  0.0024  0.0124  0.0161 </r>
        <r>  0.0024  0.0124  0.0161 </r>
        <r>  0.0034  0.0272  0.0094 </r>
        <r>  0.0042  0.0225  0.0095 </r>
        <r>  0.0000  0.0025  0.0140 </r>
        <r>  0.0003  0.0085  0.0066 </r>
        <r>  0.0100  0.0210  0.0089 </r>
        <r>  0.0100  0.0210  0.0089 </r>
        <r>  0.0386  0.0005  0.0027 </r>
        <r>  0.0000  0.0399  0.0283 </r>
        <r>  0.0034  0.0132  0.0154 </r>
        <r>  0.0034  0.0132  0.0154 </r>
        <r>  0.0001  0.1069  0.0017 </r>
        <r>  0.0000  0.0703  0.0021 </r>
       </set>
       <set comment="band 100">
        <r>  0.0094  0.0155  0.0301 </r>
        <r>  0.0119  0.0213  0.0281 </r>
        <r>  0.0036  0.0525  0.0133 </r>
        <r>  0.0036  0.0525  0.0133 </r>
        <r>  0.0055  0.0263  0.0132 </r>
        <r>  0.0055  0.0263  0.0132 </r>
        <r>  0.0003  0.0145  0.0170 </r>
        <r>  0.0007  0.0368  0.0165 </r>
        <r>  0.0021  0.0321  0.0048 </r>
        <r>  0.0016  0.0544  0.0162 </r>
        <r>  0.0075  0.0094  0.0219 </r>
        <r>  0.0075  0.0094  0.0219 </r>
        <r>  0.0088  0.0129  0.0210 </r>
        <r>  0.0193  0.0102  0.0214 </r>
        <r>  0.0027  0.0418  0.0124 </r>
        <r>  0.0027  0.0418  0.0124 </r>
        <r>  0.0028  0.0015  0.0008 </r>
        <r>  0.0007  0.0027  0.0000 </r>
       </set>
       <set comment="band 101">
        <r>  0.0001  0.0253  0.0135 </r>
        <r>  0.0000  0.0518  0.0083 </r>
        <r>  0.0099  0.0182  0.0208 </r>
        <r>  0.0099  0.0181  0.0208 </r>
        <r>  0.0027  0.0121  0.0156 </r>
        <r>  0.0027  0.0121  0.0156 </r>
        <r>  0.0066  0.0200  0.0048 </r>
        <r>  0.0057  0.0242  0.0074 </r>
        <r>  0.0211  0.0019  0.0197 </r>
        <r>  0.0225  0.0032  0.0139 </r>
        <r>  0.0002  0.0438  0.0102 </r>
        <r>  0.0002  0.0438  0.0102 </r>
        <r>  0.0112  0.0461  0.0052 </r>
        <r>  0.0086  0.0158  0.0115 </r>
        <r>  0.0023  0.0186  0.0202 </r>
        <r>  0.0023  0.0186  0.0203 </r>
        <r>  0.0009  0.0749  0.0008 </r>
        <r>  0.0001  0.0323  0.0017 </r>
       </set>
       <set comment="band 102">
        <r>  0.0035  0.0372  0.0196 </r>
        <r>  0.0046  0.0276  0.0184 </r>
        <r>  0.0007  0.0411  0.0127 </r>
        <r>  0.0007  0.0410  0.0128 </r>
        <r>  0.0010  0.0346  0.0051 </r>
        <r>  0.0010  0.0348  0.0051 </r>
        <r>  0.0013  0.0108  0.0204 </r>
        <r>  0.0002  0.0062  0.0126 </r>
        <r>  0.0006  0.0403  0.0090 </r>
        <r>  0.0070  0.0473  0.0134 </r>
        <r>  0.0002  0.0253  0.0181 </r>
        <r>  0.0002  0.0251  0.0181 </r>
        <r>  0.0027  0.0595  0.0101 </r>
        <r>  0.0076  0.0386  0.0193 </r>
        <r>  0.0038  0.0323  0.0240 </r>
        <r>  0.0038  0.0324  0.0240 </r>
        <r>  0.0045  0.0091  0.0003 </r>
        <r>  0.0002  0.0032  0.0002 </r>
       </set>
       <set comment="band 103">
        <r>  0.0000  0.0333  0.0017 </r>
        <r>  0.0007  0.0157  0.0036 </r>
        <r>  0.0002  0.0054  0.0090 </r>
        <r>  0.0002  0.0055  0.0090 </r>
        <r>  0.0007  0.0129  0.0083 </r>
        <r>  0.0007  0.0127  0.0083 </r>
        <r>  0.0000  0.0255  0.0058 </r>
        <r>  0.0060  0.0095  0.0064 </r>
        <r>  0.0016  0.0025  0.0096 </r>
        <r>  0.0022  0.0093  0.0196 </r>
        <r>  0.0034  0.0323  0.0076 </r>
        <r>  0.0034  0.0327  0.0075 </r>
        <r>  0.0233  0.0580  0.0079 </r>
        <r>  0.0005  0.0402  0.0407 </r>
        <r>  0.0094  0.0171  0.0197 </r>
        <r>  0.0093  0.0171  0.0196 </r>
        <r>  0.0010  0.0802  0.0005 </r>
        <r>  0.0000  0.0121  0.0019 </r>
       </set>
       <set comment="band 104">
        <r>  0.0000  0.0338  0.0176 </r>
        <r>  0.0001  0.0365  0.0215 </r>
        <r>  0.0002  0.0353  0.0195 </r>
        <r>  0.0002  0.0353  0.0195 </r>
        <r>  0.0225  0.0448  0.0223 </r>
        <r>  0.0225  0.0448  0.0223 </r>
        <r>  0.0289  0.0420  0.0190 </r>
        <r>  0.0168  0.0465  0.0277 </r>
        <r>  0.0075  0.0359  0.0179 </r>
        <r>  0.0176  0.0219  0.0168 </r>
        <r>  0.0121  0.0313  0.0162 </r>
        <r>  0.0121  0.0313  0.0162 </r>
        <r>  0.0018  0.0147  0.0047 </r>
        <r>  0.0020  0.0019  0.0116 </r>
        <r>  0.0009  0.0085  0.0103 </r>
        <r>  0.0009  0.0085  0.0103 </r>
        <r>  0.0010  0.0126  0.0001 </r>
        <r>  0.0001  0.0029  0.0003 </r>
       </set>
       <set comment="band 105">
        <r>  0.0187  0.0073  0.0078 </r>
        <r>  0.0174  0.0043  0.0075 </r>
        <r>  0.0173  0.0149  0.0092 </r>
        <r>  0.0173  0.0149  0.0093 </r>
        <r>  0.0032  0.0658  0.0318 </r>
        <r>  0.0032  0.0658  0.0318 </r>
        <r>  0.0060  0.0562  0.0389 </r>
        <r>  0.0015  0.0501  0.0391 </r>
        <r>  0.0233  0.0316  0.0212 </r>
        <r>  0.0125  0.0248  0.0299 </r>
        <r>  0.0189  0.0396  0.0206 </r>
        <r>  0.0190  0.0396  0.0206 </r>
        <r>  0.0026  0.0030  0.0029 </r>
        <r>  0.0030  0.0031  0.0026 </r>
        <r>  0.0078  0.0055  0.0099 </r>
        <r>  0.0079  0.0055  0.0099 </r>
        <r>  0.0010  0.0119  0.0001 </r>
        <r>  0.0000  0.0024  0.0003 </r>
       </set>
       <set comment="band 106">
        <r>  0.0014  0.0195  0.0095 </r>
        <r>  0.0004  0.0121  0.0123 </r>
        <r>  0.0012  0.0241  0.0065 </r>
        <r>  0.0012  0.0240  0.0065 </r>
        <r>  0.0024  0.0084  0.0108 </r>
        <r>  0.0024  0.0085  0.0108 </r>
        <r>  0.0016  0.0280  0.0077 </r>
        <r>  0.0040  0.0430  0.0078 </r>
        <r>  0.0115  0.0736  0.0042 </r>
        <r>  0.0007  0.0432  0.0085 </r>
        <r>  0.0045  0.0061  0.0241 </r>
        <r>  0.0046  0.0062  0.0240 </r>
        <r>  0.0003  0.0553  0.0225 </r>
        <r>  0.0036  0.0587  0.0171 </r>
        <r>  0.0022  0.0274  0.0285 </r>
        <r>  0.0022  0.0272  0.0285 </r>
        <r>  0.0029  0.0206  0.0009 </r>
        <r>  0.0005  0.0031  0.0006 </r>
       </set>
       <set comment="band 107">
        <r>  0.0008  0.0437  0.0131 </r>
        <r>  0.0063  0.0440  0.0093 </r>
        <r>  0.0028  0.0247  0.0172 </r>
        <r>  0.0028  0.0247  0.0172 </r>
        <r>  0.0224  0.0183  0.0190 </r>
        <r>  0.0225  0.0182  0.0190 </r>
        <r>  0.0091  0.0278  0.0120 </r>
        <r>  0.0187  0.0112  0.0143 </r>
        <r>  0.0034  0.0237  0.0333 </r>
        <r>  0.0053  0.0206  0.0344 </r>
        <r>  0.0009  0.0257  0.0156 </r>
        <r>  0.0008  0.0257  0.0156 </r>
        <r>  0.0138  0.0149  0.0102 </r>
        <r>  0.0495  0.0041  0.0055 </r>
        <r>  0.0176  0.0173  0.0113 </r>
        <r>  0.0176  0.0173  0.0113 </r>
        <r>  0.0074  0.0060  0.0001 </r>
        <r>  0.0001  0.0018  0.0001 </r>
       </set>
       <set comment="band 108">
        <r>  0.0113  0.0105  0.0031 </r>
        <r>  0.0054  0.0087  0.0053 </r>
        <r>  0.0170  0.0143  0.0111 </r>
        <r>  0.0170  0.0143  0.0111 </r>
        <r>  0.0057  0.0145  0.0117 </r>
        <r>  0.0057  0.0145  0.0117 </r>
        <r>  0.0056  0.0072  0.0206 </r>
        <r>  0.0094  0.0157  0.0119 </r>
        <r>  0.0102  0.0131  0.0157 </r>
        <r>  0.0163  0.0100  0.0231 </r>
        <r>  0.0016  0.0202  0.0092 </r>
        <r>  0.0016  0.0202  0.0092 </r>
        <r>  0.0038  0.0287  0.0052 </r>
        <r>  0.0000  0.0200  0.0063 </r>
        <r>  0.0156  0.0168  0.0161 </r>
        <r>  0.0156  0.0168  0.0161 </r>
        <r>  0.0061  0.0046  0.0014 </r>
        <r>  0.0031  0.0049  0.0001 </r>
       </set>
       <set comment="band 109">
        <r>  0.0034  0.0096  0.0156 </r>
        <r>  0.0180  0.0086  0.0146 </r>
        <r>  0.0012  0.0138  0.0045 </r>
        <r>  0.0012  0.0139  0.0045 </r>
        <r>  0.0102  0.0038  0.0090 </r>
        <r>  0.0101  0.0038  0.0090 </r>
        <r>  0.0000  0.0048  0.0072 </r>
        <r>  0.0190  0.0032  0.0039 </r>
        <r>  0.0046  0.0052  0.0008 </r>
        <r>  0.0000  0.0064  0.0047 </r>
        <r>  0.0107  0.0036  0.0103 </r>
        <r>  0.0106  0.0036  0.0104 </r>
        <r>  0.0059  0.0156  0.0079 </r>
        <r>  0.0061  0.0060  0.0094 </r>
        <r>  0.0001  0.0062  0.0041 </r>
        <r>  0.0001  0.0063  0.0041 </r>
        <r>  0.0002  0.0016  0.0004 </r>
        <r>  0.0009  0.0093  0.0001 </r>
       </set>
       <set comment="band 110">
        <r>  0.0264  0.0237  0.0232 </r>
        <r>  0.0151  0.0409  0.0242 </r>
        <r>  0.0183  0.0350  0.0218 </r>
        <r>  0.0183  0.0349  0.0218 </r>
        <r>  0.0109  0.0081  0.0136 </r>
        <r>  0.0110  0.0082  0.0135 </r>
        <r>  0.0255  0.0052  0.0066 </r>
        <r>  0.0074  0.0042  0.0107 </r>
        <r>  0.0089  0.0068  0.0096 </r>
        <r>  0.0046  0.0087  0.0089 </r>
        <r>  0.0098  0.0103  0.0083 </r>
        <r>  0.0099  0.0102  0.0083 </r>
        <r>  0.0007  0.0262  0.0080 </r>
        <r>  0.0002  0.0224  0.0096 </r>
        <r>  0.0014  0.0109  0.0147 </r>
        <r>  0.0014  0.0109  0.0147 </r>
        <r>  0.0000  0.0195  0.0002 </r>
        <r>  0.0006  0.0014  0.0008 </r>
       </set>
       <set comment="band 111">
        <r>  0.0018  0.0067  0.0026 </r>
        <r>  0.0001  0.0104  0.0012 </r>
        <r>  0.0001  0.0025  0.0023 </r>
        <r>  0.0000  0.0030  0.0022 </r>
        <r>  0.0002  0.0070  0.0013 </r>
        <r>  0.0001  0.0054  0.0016 </r>
        <r>  0.0000  0.0049  0.0019 </r>
        <r>  0.0003  0.0018  0.0011 </r>
        <r>  0.0010  0.0027  0.0012 </r>
        <r>  0.0001  0.0014  0.0040 </r>
        <r>  0.0028  0.0066  0.0022 </r>
        <r>  0.0040  0.0067  0.0024 </r>
        <r>  0.0039  0.0036  0.0036 </r>
        <r>  0.0052  0.0022  0.0081 </r>
        <r>  0.0003  0.0037  0.0010 </r>
        <r>  0.0003  0.0040  0.0011 </r>
        <r>  0.0015  0.0015  0.0003 </r>
        <r>  0.0003  0.0159  0.0000 </r>
       </set>
       <set comment="band 112">
        <r>  0.0002  0.0008  0.0025 </r>
        <r>  0.0004  0.0012  0.0021 </r>
        <r>  0.0012  0.0089  0.0009 </r>
        <r>  0.0009  0.0112  0.0007 </r>
        <r>  0.0003  0.0043  0.0014 </r>
        <r>  0.0007  0.0062  0.0019 </r>
        <r>  0.0001  0.0056  0.0025 </r>
        <r>  0.0002  0.0051  0.0009 </r>
        <r>  0.0051  0.0075  0.0026 </r>
        <r>  0.0016  0.0059  0.0049 </r>
        <r>  0.0008  0.0028  0.0018 </r>
        <r>  0.0016  0.0034  0.0015 </r>
        <r>  0.0002  0.0039  0.0028 </r>
        <r>  0.0015  0.0045  0.0009 </r>
        <r>  0.0054  0.0019  0.0069 </r>
        <r>  0.0067  0.0013  0.0077 </r>
        <r>  0.0048  0.0008  0.0008 </r>
        <r>  0.0053  0.0030  0.0001 </r>
       </set>
      </set>
     </set>
    </set>
   </array>
  </projected>
 </calculation>
 <structure name="finalpos" >
  <crystal>
   <varray name="basis" >
    <v>       5.19996363       0.00000000       0.00000000 </v>
    <v>       2.59998182       4.50330060       0.00000000 </v>
    <v>       0.00000000       0.00000000      26.36862879 </v>
   </varray>
   <i name="volume">    617.47416323 </i>
   <varray name="rec_basis" >
    <v>       0.19230904      -0.11102967       0.00000000 </v>
    <v>       0.00000000       0.22205935       0.00000000 </v>
    <v>       0.00000000       0.00000000       0.03792385 </v>
   </varray>
  </crystal>
  <varray name="positions" >
   <v>       0.00000000       0.00000000       0.37923853 </v>
   <v>       0.50000000       0.00000000       0.37923853 </v>
   <v>       0.00000000       0.50000000       0.37923853 </v>
   <v>       0.50000000       0.50000000       0.37923853 </v>
   <v>       0.16666667       0.16666667       0.45974618 </v>
   <v>       0.66666667       0.16666667       0.45974618 </v>
   <v>       0.16666667       0.66666667       0.45974618 </v>
   <v>       0.66666667       0.66666667       0.45974618 </v>
   <v>       0.83247777       0.33503337       0.53981735 </v>
   <v>       0.33333139       0.33333139       0.53786352 </v>
   <v>       0.83249001       0.83249002       0.53981757 </v>
   <v>       0.33503333       0.83247779       0.53981735 </v>
   <v>       0.00000232       0.00000238       0.61711858 </v>
   <v>       0.50066979       0.99866295       0.62106858 </v>
   <v>       0.99866300       0.50066978       0.62106858 </v>
   <v>       0.50066969       0.50066970       0.62107254 </v>
   <v>       0.33332688       0.33332666       0.67499514 </v>
   <v>       0.33331476       0.33331424       0.72001527 </v>
  </varray>
  <varray name="selective"  type="logical" >
   <v type="logical" >  F  F  F </v>
   <v type="logical" >  F  F  F </v>
   <v type="logical" >  F  F  F </v>
   <v type="logical" >  F  F  F </v>
   <v type="logical" >  F  F  F </v>
   <v type="logical" >  F  F  F </v>
   <v type="logical" >  F  F  F </v>
   <v type="logical" >  F  F  F </v>
   <v type="logical" >  T  T  T </v>
   <v type="logical" >  T  T  T </v>
   <v type="logical" >  T  T  T </v>
   <v type="logical" >  T  T  T </v>
   <v type="logical" >  T  T  T </v>
   <v type="logical" >  T  T  T </v>
   <v type="logical" >  T  T  T </v>
   <v type="logical" >  T  T  T </v>
   <v type="logical" >  T  T  T </v>
   <v type="logical" >  T  T  T </v>
  </varray>
  <nose>
   <v>      -3.00000000       0.00000000       0.00010000       0.00010000 </v>
  </nose>
 </structure>
</modeling>
