unknown system                          
           1
     5.199964    0.000000    0.000000
     2.599982    4.503301    0.000000
     0.000000    0.000000   26.368629
   Cu   C    O 
  16   1   1
Direct configuration=     1
   0.00000000  0.00000000  0.37923853
   0.50000000  0.00000000  0.37923853
   0.00000000  0.50000000  0.37923853
   0.50000000  0.50000000  0.37923853
   0.16666667  0.16666667  0.45974618
   0.66666667  0.16666667  0.45974618
   0.16666667  0.66666667  0.45974618
   0.66666667  0.66666667  0.45974618
   0.83247777  0.33503337  0.53981735
   0.33333139  0.33333139  0.53786352
   0.83249001  0.83249002  0.53981757
   0.33503333  0.83247779  0.53981735
   0.00000232  0.00000238  0.61711858
   0.50066979  0.99866295  0.62106858
   0.99866300  0.50066978  0.62106858
   0.50066969  0.50066970  0.62107254
   0.33332688  0.33332666  0.67499514
   0.33331476  0.33331424  0.72001527
