  18  18   1   0
  0.3430412E+02  0.5199964E-09  0.5199964E-09  0.2636863E-08  0.5000000E-15
  1.000000000000000E-004
  CAR 
 unknown system                          
      7.72529600    -26.23557670  301     -0.79392958      1.00000000
    -26.236  0.0000E+00  0.0000E+00
    -26.122  0.0000E+00  0.0000E+00
    -26.009  0.0000E+00  0.0000E+00
    -25.896 -0.4796E-28 -0.5429E-29
    -25.783 -0.3915E-24 -0.4432E-25
    -25.670 -0.1675E-20 -0.1897E-21
    -25.556 -0.3752E-17 -0.4249E-18
    -25.443 -0.4395E-14 -0.4980E-15
    -25.330 -0.2599E-11 -0.2947E-12
    -25.217 -0.8214E-09 -0.9328E-10
    -25.104 -0.1343E-06 -0.1529E-07
    -24.990 -0.1127E-04 -0.1291E-05
    -24.877 -0.4798E-03 -0.5560E-04
    -24.764 -0.1009E-01 -0.1198E-02
    -24.651 -0.9896E-01 -0.1240E-01
    -24.538 -0.3709E+00 -0.5438E-01
    -24.424  0.1566E+00 -0.3666E-01
    -24.311  0.3926E+01  0.4078E+00
    -24.198  0.7985E+01  0.1312E+01
    -24.085  0.5678E+01  0.1955E+01
    -23.972  0.1006E+01  0.2068E+01
    -23.858 -0.4042E+00  0.2023E+01
    -23.745 -0.1753E+00  0.2003E+01
    -23.632 -0.2381E-01  0.2000E+01
    -23.519 -0.1449E-02  0.2000E+01
    -23.406 -0.4299E-04  0.2000E+01
    -23.292 -0.6423E-06  0.2000E+01
    -23.179 -0.4912E-08  0.2000E+01
    -23.066 -0.1939E-10  0.2000E+01
    -22.953 -0.4033E-13  0.2000E+01
    -22.839  0.0000E+00  0.2000E+01
    -22.726  0.0000E+00  0.2000E+01
    -22.613  0.0000E+00  0.2000E+01
    -22.500  0.0000E+00  0.2000E+01
    -22.387  0.0000E+00  0.2000E+01
    -22.273  0.0000E+00  0.2000E+01
    -22.160  0.0000E+00  0.2000E+01
    -22.047  0.0000E+00  0.2000E+01
    -21.934  0.0000E+00  0.2000E+01
    -21.821  0.0000E+00  0.2000E+01
    -21.707  0.0000E+00  0.2000E+01
    -21.594  0.0000E+00  0.2000E+01
    -21.481  0.0000E+00  0.2000E+01
    -21.368  0.0000E+00  0.2000E+01
    -21.255  0.0000E+00  0.2000E+01
    -21.141  0.0000E+00  0.2000E+01
    -21.028  0.0000E+00  0.2000E+01
    -20.915  0.0000E+00  0.2000E+01
    -20.802  0.0000E+00  0.2000E+01
    -20.689  0.0000E+00  0.2000E+01
    -20.575  0.0000E+00  0.2000E+01
    -20.462  0.0000E+00  0.2000E+01
    -20.349  0.0000E+00  0.2000E+01
    -20.236  0.0000E+00  0.2000E+01
    -20.123  0.0000E+00  0.2000E+01
    -20.009  0.0000E+00  0.2000E+01
    -19.896  0.0000E+00  0.2000E+01
    -19.783  0.0000E+00  0.2000E+01
    -19.670  0.0000E+00  0.2000E+01
    -19.557  0.0000E+00  0.2000E+01
    -19.443  0.0000E+00  0.2000E+01
    -19.330  0.0000E+00  0.2000E+01
    -19.217  0.0000E+00  0.2000E+01
    -19.104  0.0000E+00  0.2000E+01
    -18.991  0.0000E+00  0.2000E+01
    -18.877  0.0000E+00  0.2000E+01
    -18.764  0.0000E+00  0.2000E+01
    -18.651  0.0000E+00  0.2000E+01
    -18.538  0.0000E+00  0.2000E+01
    -18.425  0.0000E+00  0.2000E+01
    -18.311  0.0000E+00  0.2000E+01
    -18.198  0.0000E+00  0.2000E+01
    -18.085  0.0000E+00  0.2000E+01
    -17.972  0.0000E+00  0.2000E+01
    -17.859  0.0000E+00  0.2000E+01
    -17.745  0.0000E+00  0.2000E+01
    -17.632  0.0000E+00  0.2000E+01
    -17.519  0.0000E+00  0.2000E+01
    -17.406  0.0000E+00  0.2000E+01
    -17.293  0.0000E+00  0.2000E+01
    -17.179  0.0000E+00  0.2000E+01
    -17.066  0.0000E+00  0.2000E+01
    -16.953  0.0000E+00  0.2000E+01
    -16.840  0.0000E+00  0.2000E+01
    -16.727  0.0000E+00  0.2000E+01
    -16.613  0.0000E+00  0.2000E+01
    -16.500  0.0000E+00  0.2000E+01
    -16.387  0.0000E+00  0.2000E+01
    -16.274  0.0000E+00  0.2000E+01
    -16.161  0.0000E+00  0.2000E+01
    -16.047  0.0000E+00  0.2000E+01
    -15.934  0.0000E+00  0.2000E+01
    -15.821  0.0000E+00  0.2000E+01
    -15.708  0.0000E+00  0.2000E+01
    -15.595  0.0000E+00  0.2000E+01
    -15.481  0.0000E+00  0.2000E+01
    -15.368  0.0000E+00  0.2000E+01
    -15.255  0.0000E+00  0.2000E+01
    -15.142  0.0000E+00  0.2000E+01
    -15.028  0.0000E+00  0.2000E+01
    -14.915  0.0000E+00  0.2000E+01
    -14.802  0.0000E+00  0.2000E+01
    -14.689  0.0000E+00  0.2000E+01
    -14.576  0.0000E+00  0.2000E+01
    -14.462  0.0000E+00  0.2000E+01
    -14.349  0.0000E+00  0.2000E+01
    -14.236  0.0000E+00  0.2000E+01
    -14.123  0.0000E+00  0.2000E+01
    -14.010  0.0000E+00  0.2000E+01
    -13.896  0.0000E+00  0.2000E+01
    -13.783  0.0000E+00  0.2000E+01
    -13.670  0.0000E+00  0.2000E+01
    -13.557  0.0000E+00  0.2000E+01
    -13.444  0.0000E+00  0.2000E+01
    -13.330  0.0000E+00  0.2000E+01
    -13.217  0.0000E+00  0.2000E+01
    -13.104  0.0000E+00  0.2000E+01
    -12.991  0.0000E+00  0.2000E+01
    -12.878  0.0000E+00  0.2000E+01
    -12.764 -0.8810E-29  0.2000E+01
    -12.651 -0.6701E-25  0.2000E+01
    -12.538 -0.2692E-21  0.2000E+01
    -12.425 -0.5724E-18  0.2000E+01
    -12.312 -0.6451E-15  0.2000E+01
    -12.198 -0.3733E-12  0.2000E+01
    -12.085 -0.1178E-09  0.2000E+01
    -11.972 -0.1975E-07  0.2000E+01
    -11.859 -0.1759E-05  0.2000E+01
    -11.746 -0.8292E-04  0.2000E+01
    -11.632 -0.2052E-02  0.2000E+01
    -11.519 -0.2602E-01  0.1997E+01
    -11.406 -0.1562E+00  0.1979E+01
    -11.293 -0.2978E+00  0.1945E+01
    -11.180  0.9066E+00  0.2048E+01
    -11.066  0.4855E+01  0.2598E+01
    -10.953  0.7551E+01  0.3452E+01
    -10.840  0.4648E+01  0.3979E+01
    -10.727  0.6986E+00  0.4058E+01
    -10.614 -0.3470E+00  0.4018E+01
    -10.500 -0.1423E+00  0.4002E+01
    -10.387 -0.1951E-01  0.4000E+01
    -10.274 -0.1226E-02  0.4000E+01
    -10.161 -0.3810E-04  0.4000E+01
    -10.048 -0.7166E-06  0.4000E+01
     -9.934 -0.6064E-05  0.4000E+01
     -9.821 -0.1613E-03  0.4000E+01
     -9.708 -0.2058E-02  0.4000E+01
     -9.595 -0.1125E-01  0.3998E+01
     -9.482 -0.1485E-01  0.3997E+01
     -9.368  0.5826E-01  0.4003E+01
     -9.255  0.1891E+00  0.4025E+01
     -9.142  0.4348E+00  0.4074E+01
     -9.029  0.1294E+01  0.4220E+01
     -8.916  0.1921E+01  0.4438E+01
     -8.802  0.1032E+01  0.4555E+01
     -8.689 -0.4120E-02  0.4554E+01
     -8.576  0.2553E+00  0.4583E+01
     -8.463  0.1520E+01  0.4755E+01
     -8.350  0.2746E+01  0.5066E+01
     -8.236  0.3800E+01  0.5496E+01
     -8.123  0.4338E+01  0.5987E+01
     -8.010  0.4721E+01  0.6522E+01
     -7.897  0.4805E+01  0.7066E+01
     -7.784  0.2914E+01  0.7395E+01
     -7.670  0.2277E+01  0.7653E+01
     -7.557  0.6920E+01  0.8436E+01
     -7.444  0.1311E+02  0.9920E+01
     -7.331  0.1347E+02  0.1144E+02
     -7.217  0.8793E+01  0.1244E+02
     -7.104  0.4324E+01  0.1293E+02
     -6.991  0.2023E+01  0.1316E+02
     -6.878  0.2659E+01  0.1346E+02
     -6.765  0.4050E+01  0.1392E+02
     -6.651  0.3529E+01  0.1432E+02
     -6.538  0.1410E+01  0.1448E+02
     -6.425 -0.1205E+00  0.1446E+02
     -6.312  0.3221E+00  0.1450E+02
     -6.199  0.2852E+01  0.1482E+02
     -6.085  0.6570E+01  0.1557E+02
     -5.972  0.9310E+01  0.1662E+02
     -5.859  0.7925E+01  0.1752E+02
     -5.746  0.4023E+01  0.1797E+02
     -5.633  0.2683E+01  0.1828E+02
     -5.519  0.4622E+01  0.1880E+02
     -5.406  0.9917E+01  0.1992E+02
     -5.293  0.1523E+02  0.2165E+02
     -5.180  0.1591E+02  0.2345E+02
     -5.067  0.1651E+02  0.2532E+02
     -4.953  0.2116E+02  0.2771E+02
     -4.840  0.2631E+02  0.3069E+02
     -4.727  0.3028E+02  0.3412E+02
     -4.614  0.3545E+02  0.3813E+02
     -4.501  0.3676E+02  0.4229E+02
     -4.387  0.3475E+02  0.4623E+02
     -4.274  0.3518E+02  0.5021E+02
     -4.161  0.3666E+02  0.5436E+02
     -4.048  0.3856E+02  0.5872E+02
     -3.935  0.4397E+02  0.6370E+02
     -3.821  0.5307E+02  0.6971E+02
     -3.708  0.6225E+02  0.7676E+02
     -3.595  0.6878E+02  0.8454E+02
     -3.482  0.7160E+02  0.9265E+02
     -3.369  0.7110E+02  0.1007E+03
     -3.255  0.6672E+02  0.1082E+03
     -3.142  0.5904E+02  0.1149E+03
     -3.029  0.5294E+02  0.1209E+03
     -2.916  0.5634E+02  0.1273E+03
     -2.803  0.6680E+02  0.1349E+03
     -2.689  0.7061E+02  0.1429E+03
     -2.576  0.6850E+02  0.1506E+03
     -2.463  0.7309E+02  0.1589E+03
     -2.350  0.7612E+02  0.1675E+03
     -2.237  0.5798E+02  0.1741E+03
     -2.123  0.2864E+02  0.1773E+03
     -2.010  0.1183E+02  0.1787E+03
     -1.897  0.8260E+01  0.1796E+03
     -1.784  0.7763E+01  0.1805E+03
     -1.671  0.5778E+01  0.1811E+03
     -1.557  0.3507E+01  0.1815E+03
     -1.444  0.2418E+01  0.1818E+03
     -1.331  0.2112E+01  0.1820E+03
     -1.218  0.3248E+01  0.1824E+03
     -1.105  0.6639E+01  0.1831E+03
     -0.991  0.9863E+01  0.1843E+03
     -0.878  0.9839E+01  0.1854E+03
     -0.765  0.7011E+01  0.1862E+03
     -0.652  0.5694E+01  0.1868E+03
     -0.539  0.7845E+01  0.1877E+03
     -0.425  0.7880E+01  0.1886E+03
     -0.312  0.5165E+01  0.1892E+03
     -0.199  0.3897E+01  0.1896E+03
     -0.086  0.3596E+01  0.1900E+03
      0.027  0.3693E+01  0.1904E+03
      0.141  0.3419E+01  0.1908E+03
      0.254  0.3012E+01  0.1912E+03
      0.367  0.4553E+01  0.1917E+03
      0.480  0.6814E+01  0.1925E+03
      0.594  0.8383E+01  0.1934E+03
      0.707  0.8591E+01  0.1944E+03
      0.820  0.6998E+01  0.1952E+03
      0.933  0.5256E+01  0.1958E+03
      1.046  0.4753E+01  0.1963E+03
      1.160  0.5185E+01  0.1969E+03
      1.273  0.5009E+01  0.1975E+03
      1.386  0.4465E+01  0.1980E+03
      1.499  0.5322E+01  0.1986E+03
      1.612  0.5797E+01  0.1992E+03
      1.726  0.3686E+01  0.1996E+03
      1.839  0.3310E+01  0.2000E+03
      1.952  0.6978E+01  0.2008E+03
      2.065  0.8684E+01  0.2018E+03
      2.178  0.7283E+01  0.2026E+03
      2.292  0.5450E+01  0.2032E+03
      2.405  0.3488E+01  0.2036E+03
      2.518  0.2310E+01  0.2039E+03
      2.631  0.1757E+01  0.2041E+03
      2.744  0.1796E+01  0.2043E+03
      2.858  0.3337E+01  0.2047E+03
      2.971  0.4985E+01  0.2052E+03
      3.084  0.5485E+01  0.2059E+03
      3.197  0.5772E+01  0.2065E+03
      3.310  0.4757E+01  0.2070E+03
      3.424  0.2677E+01  0.2073E+03
      3.537  0.2823E+01  0.2077E+03
      3.650  0.4521E+01  0.2082E+03
      3.763  0.6833E+01  0.2090E+03
      3.876  0.9100E+01  0.2100E+03
      3.990  0.8418E+01  0.2109E+03
      4.103  0.6557E+01  0.2117E+03
      4.216  0.6625E+01  0.2124E+03
      4.329  0.7070E+01  0.2132E+03
      4.442  0.6563E+01  0.2140E+03
      4.556  0.6486E+01  0.2147E+03
      4.669  0.8098E+01  0.2156E+03
      4.782  0.9813E+01  0.2167E+03
      4.895  0.1008E+02  0.2179E+03
      5.008  0.8920E+01  0.2189E+03
      5.122  0.6689E+01  0.2196E+03
      5.235  0.4323E+01  0.2201E+03
      5.348  0.3340E+01  0.2205E+03
      5.461  0.4548E+01  0.2210E+03
      5.574  0.8213E+01  0.2220E+03
      5.688  0.1054E+02  0.2231E+03
      5.801  0.6774E+01  0.2239E+03
      5.914  0.1434E+01  0.2241E+03
      6.027 -0.3924E+00  0.2240E+03
      6.140 -0.2359E+00  0.2240E+03
      6.254 -0.4112E-01  0.2240E+03
      6.367 -0.3277E-02  0.2240E+03
      6.480 -0.1302E-03  0.2240E+03
      6.593 -0.2656E-05  0.2240E+03
      6.706 -0.2820E-07  0.2240E+03
      6.820 -0.1566E-09  0.2240E+03
      6.933 -0.4560E-12  0.2240E+03
      7.046 -0.6277E-15  0.2240E+03
      7.159  0.0000E+00  0.2240E+03
      7.272  0.0000E+00  0.2240E+03
      7.386  0.0000E+00  0.2240E+03
      7.499  0.0000E+00  0.2240E+03
      7.612  0.0000E+00  0.2240E+03
      7.725  0.0000E+00  0.2240E+03
      7.72529600    -26.23557670  301     -0.79392958      1.00000000
    -26.236  0.0000E+00  0.0000E+00  0.0000E+00
    -26.122  0.0000E+00  0.0000E+00  0.0000E+00
    -26.009  0.0000E+00  0.0000E+00  0.0000E+00
    -25.896 -0.4542E-39 -0.1297E-38 -0.2807E-37
    -25.783 -0.3707E-35 -0.1059E-34 -0.2292E-33
    -25.670 -0.1586E-31 -0.4532E-31 -0.9804E-30
    -25.556 -0.3551E-28 -0.1016E-27 -0.2196E-26
    -25.443 -0.4159E-25 -0.1190E-24 -0.2572E-23
    -25.330 -0.2459E-22 -0.7041E-22 -0.1521E-20
    -25.217 -0.7770E-20 -0.2226E-19 -0.4806E-18
    -25.104 -0.1270E-17 -0.3640E-17 -0.7856E-16
    -24.990 -0.1066E-15 -0.3057E-15 -0.6594E-14
    -24.877 -0.4536E-14 -0.1301E-13 -0.2806E-12
    -24.764 -0.9541E-13 -0.2739E-12 -0.5904E-11
    -24.651 -0.9352E-12 -0.2687E-11 -0.5788E-10
    -24.538 -0.3504E-11 -0.1008E-10 -0.2169E-09
    -24.424  0.1484E-11  0.4228E-11  0.9171E-10
    -24.311  0.3710E-10  0.1066E-09  0.2296E-08
    -24.198  0.7542E-10  0.2170E-09  0.4669E-08
    -24.085  0.5362E-10  0.1544E-09  0.3320E-08
    -23.972  0.9497E-11  0.2741E-10  0.5882E-09
    -23.858 -0.3818E-11 -0.1099E-10 -0.2364E-09
    -23.745 -0.1655E-11 -0.4770E-11 -0.1025E-09
    -23.632 -0.2247E-12 -0.6480E-12 -0.1391E-10
    -23.519 -0.1367E-13 -0.3946E-13 -0.8468E-12
    -23.406 -0.4055E-15 -0.1171E-14 -0.2512E-13
    -23.292 -0.6058E-17 -0.1751E-16 -0.3753E-15
    -23.179 -0.4632E-19 -0.1339E-18 -0.2870E-17
    -23.066 -0.1828E-21 -0.5289E-21 -0.1133E-19
    -22.953 -0.3768E-24 -0.1102E-23 -0.2355E-22
    -22.839  0.0000E+00  0.0000E+00  0.0000E+00
    -22.726  0.0000E+00  0.0000E+00  0.0000E+00
    -22.613  0.0000E+00  0.0000E+00  0.0000E+00
    -22.500  0.0000E+00  0.0000E+00  0.0000E+00
    -22.387  0.0000E+00  0.0000E+00  0.0000E+00
    -22.273  0.0000E+00  0.0000E+00  0.0000E+00
    -22.160  0.0000E+00  0.0000E+00  0.0000E+00
    -22.047  0.0000E+00  0.0000E+00  0.0000E+00
    -21.934  0.0000E+00  0.0000E+00  0.0000E+00
    -21.821  0.0000E+00  0.0000E+00  0.0000E+00
    -21.707  0.0000E+00  0.0000E+00  0.0000E+00
    -21.594  0.0000E+00  0.0000E+00  0.0000E+00
    -21.481  0.0000E+00  0.0000E+00  0.0000E+00
    -21.368  0.0000E+00  0.0000E+00  0.0000E+00
    -21.255  0.0000E+00  0.0000E+00  0.0000E+00
    -21.141  0.0000E+00  0.0000E+00  0.0000E+00
    -21.028  0.0000E+00  0.0000E+00  0.0000E+00
    -20.915  0.0000E+00  0.0000E+00  0.0000E+00
    -20.802  0.0000E+00  0.0000E+00  0.0000E+00
    -20.689  0.0000E+00  0.0000E+00  0.0000E+00
    -20.575  0.0000E+00  0.0000E+00  0.0000E+00
    -20.462  0.0000E+00  0.0000E+00  0.0000E+00
    -20.349  0.0000E+00  0.0000E+00  0.0000E+00
    -20.236  0.0000E+00  0.0000E+00  0.0000E+00
    -20.123  0.0000E+00  0.0000E+00  0.0000E+00
    -20.009  0.0000E+00  0.0000E+00  0.0000E+00
    -19.896  0.0000E+00  0.0000E+00  0.0000E+00
    -19.783  0.0000E+00  0.0000E+00  0.0000E+00
    -19.670  0.0000E+00  0.0000E+00  0.0000E+00
    -19.557  0.0000E+00  0.0000E+00  0.0000E+00
    -19.443  0.0000E+00  0.0000E+00  0.0000E+00
    -19.330  0.0000E+00  0.0000E+00  0.0000E+00
    -19.217  0.0000E+00  0.0000E+00  0.0000E+00
    -19.104  0.0000E+00  0.0000E+00  0.0000E+00
    -18.991  0.0000E+00  0.0000E+00  0.0000E+00
    -18.877  0.0000E+00  0.0000E+00  0.0000E+00
    -18.764  0.0000E+00  0.0000E+00  0.0000E+00
    -18.651  0.0000E+00  0.0000E+00  0.0000E+00
    -18.538  0.0000E+00  0.0000E+00  0.0000E+00
    -18.425  0.0000E+00  0.0000E+00  0.0000E+00
    -18.311  0.0000E+00  0.0000E+00  0.0000E+00
    -18.198  0.0000E+00  0.0000E+00  0.0000E+00
    -18.085  0.0000E+00  0.0000E+00  0.0000E+00
    -17.972  0.0000E+00  0.0000E+00  0.0000E+00
    -17.859  0.0000E+00  0.0000E+00  0.0000E+00
    -17.745  0.0000E+00  0.0000E+00  0.0000E+00
    -17.632  0.0000E+00  0.0000E+00  0.0000E+00
    -17.519  0.0000E+00  0.0000E+00  0.0000E+00
    -17.406  0.0000E+00  0.0000E+00  0.0000E+00
    -17.293  0.0000E+00  0.0000E+00  0.0000E+00
    -17.179  0.0000E+00  0.0000E+00  0.0000E+00
    -17.066  0.0000E+00  0.0000E+00  0.0000E+00
    -16.953  0.0000E+00  0.0000E+00  0.0000E+00
    -16.840  0.0000E+00  0.0000E+00  0.0000E+00
    -16.727  0.0000E+00  0.0000E+00  0.0000E+00
    -16.613  0.0000E+00  0.0000E+00  0.0000E+00
    -16.500  0.0000E+00  0.0000E+00  0.0000E+00
    -16.387  0.0000E+00  0.0000E+00  0.0000E+00
    -16.274  0.0000E+00  0.0000E+00  0.0000E+00
    -16.161  0.0000E+00  0.0000E+00  0.0000E+00
    -16.047  0.0000E+00  0.0000E+00  0.0000E+00
    -15.934  0.0000E+00  0.0000E+00  0.0000E+00
    -15.821  0.0000E+00  0.0000E+00  0.0000E+00
    -15.708  0.0000E+00  0.0000E+00  0.0000E+00
    -15.595  0.0000E+00  0.0000E+00  0.0000E+00
    -15.481  0.0000E+00  0.0000E+00  0.0000E+00
    -15.368  0.0000E+00  0.0000E+00  0.0000E+00
    -15.255  0.0000E+00  0.0000E+00  0.0000E+00
    -15.142  0.0000E+00  0.0000E+00  0.0000E+00
    -15.028  0.0000E+00  0.0000E+00  0.0000E+00
    -14.915  0.0000E+00  0.0000E+00  0.0000E+00
    -14.802  0.0000E+00  0.0000E+00  0.0000E+00
    -14.689  0.0000E+00  0.0000E+00  0.0000E+00
    -14.576  0.0000E+00  0.0000E+00  0.0000E+00
    -14.462  0.0000E+00  0.0000E+00  0.0000E+00
    -14.349  0.0000E+00  0.0000E+00  0.0000E+00
    -14.236  0.0000E+00  0.0000E+00  0.0000E+00
    -14.123  0.0000E+00  0.0000E+00  0.0000E+00
    -14.010  0.0000E+00  0.0000E+00  0.0000E+00
    -13.896  0.0000E+00  0.0000E+00  0.0000E+00
    -13.783  0.0000E+00  0.0000E+00  0.0000E+00
    -13.670  0.0000E+00  0.0000E+00  0.0000E+00
    -13.557  0.0000E+00  0.0000E+00  0.0000E+00
    -13.444  0.0000E+00  0.0000E+00  0.0000E+00
    -13.330  0.0000E+00  0.0000E+00  0.0000E+00
    -13.217  0.0000E+00  0.0000E+00  0.0000E+00
    -13.104  0.0000E+00  0.0000E+00  0.0000E+00
    -12.991  0.0000E+00  0.0000E+00  0.0000E+00
    -12.878  0.0000E+00  0.0000E+00  0.0000E+00
    -12.764 -0.1766E-33 -0.4876E-34 -0.2376E-35
    -12.651 -0.1322E-29 -0.3659E-30 -0.1815E-31
    -12.538 -0.5205E-26 -0.1446E-26 -0.7332E-28
    -12.425 -0.1079E-22 -0.3011E-23 -0.1569E-24
    -12.312 -0.1177E-19 -0.3304E-20 -0.1781E-21
    -12.198 -0.6537E-17 -0.1848E-17 -0.1039E-18
    -12.085 -0.1961E-14 -0.5590E-15 -0.3300E-16
    -11.972 -0.3083E-12 -0.8887E-13 -0.5556E-14
    -11.859 -0.2532E-10 -0.7394E-11 -0.4940E-12
    -11.746 -0.1076E-08 -0.3193E-09 -0.2301E-10
    -11.632 -0.2319E-07 -0.7022E-08 -0.5530E-09
    -11.519 -0.2422E-06 -0.7527E-07 -0.6610E-08
    -11.406 -0.1055E-05 -0.3422E-06 -0.3532E-07
    -11.293 -0.3780E-06 -0.1895E-06 -0.4468E-07
    -11.180  0.9731E-05  0.3028E-05  0.2615E-06
    -11.066  0.2601E-04  0.8683E-05  0.9926E-06
    -10.953  0.2522E-04  0.8980E-05  0.1261E-05
    -10.840  0.8845E-05  0.3484E-05  0.6299E-06
    -10.727 -0.4505E-06 -0.3570E-07  0.4999E-07
    -10.614 -0.9747E-06 -0.3589E-06 -0.5498E-07
    -10.500 -0.2264E-06 -0.9181E-07 -0.1783E-07
    -10.387 -0.2277E-07 -0.9856E-08 -0.2182E-08
    -10.274 -0.1142E-08 -0.5201E-09 -0.1264E-09
    -10.161 -0.5986E-10 -0.1815E-10 -0.3692E-11
    -10.048 -0.3154E-08 -0.4241E-09 -0.1676E-11
     -9.934 -0.1680E-06 -0.2258E-07 -0.8647E-10
     -9.821 -0.4473E-05 -0.6013E-06 -0.2316E-08
     -9.708 -0.5705E-04 -0.7674E-05 -0.3061E-07
     -9.595 -0.3112E-03 -0.4206E-04 -0.2077E-06
     -9.482 -0.3973E-03 -0.5774E-04 -0.1069E-05
     -9.368  0.1735E-02  0.1973E-03 -0.6240E-05
     -9.255  0.5581E-02  0.6482E-03 -0.1739E-04
     -9.142  0.1154E-01  0.1708E-02  0.3716E-04
     -9.029  0.3169E-01  0.5519E-02  0.2667E-03
     -8.916  0.4663E-01  0.8281E-02  0.4226E-03
     -8.802  0.2553E-01  0.4467E-02  0.2061E-03
     -8.689  0.7507E-03  0.4939E-04 -0.3765E-04
     -8.576  0.3048E-02  0.1212E-02  0.2076E-03
     -8.463  0.2382E-01  0.6347E-02  0.9573E-03
     -8.350  0.4428E-01  0.9881E-02  0.1579E-02
     -8.236  0.6153E-01  0.1109E-01  0.1852E-02
     -8.123  0.6377E-01  0.1052E-01  0.1678E-02
     -8.010  0.5482E-01  0.1105E-01  0.1759E-02
     -7.897  0.5841E-01  0.1517E-01  0.2646E-02
     -7.784  0.4432E-01  0.1289E-01  0.2392E-02
     -7.670  0.1794E-01  0.5638E-02  0.1280E-02
     -7.557  0.2422E-01  0.3734E-02  0.1504E-02
     -7.444  0.5434E-01  0.5045E-02  0.2919E-02
     -7.331  0.1016E+00  0.1365E-01  0.8067E-02
     -7.217  0.1459E+00  0.3233E-01  0.1628E-01
     -7.104  0.1187E+00  0.3503E-01  0.1548E-01
     -6.991  0.8291E-01  0.2126E-01  0.7867E-02
     -6.878  0.1233E+00  0.2334E-01  0.9200E-02
     -6.765  0.1572E+00  0.3656E-01  0.1685E-01
     -6.651  0.1199E+00  0.3580E-01  0.1679E-01
     -6.538  0.4525E-01  0.1611E-01  0.6929E-02
     -6.425 -0.3443E-02 -0.4556E-03 -0.1580E-02
     -6.312  0.1218E-01  0.7081E-02  0.1067E-02
     -6.199  0.8825E-01  0.3758E-01  0.2178E-01
     -6.085  0.1811E+00  0.6989E-01  0.6606E-01
     -5.972  0.2413E+00  0.8404E-01  0.1167E+00
     -5.859  0.2139E+00  0.6751E-01  0.1133E+00
     -5.746  0.1134E+00  0.3305E-01  0.6142E-01
     -5.633  0.7177E-01  0.1405E-01  0.4511E-01
     -5.519  0.1276E+00  0.3005E-01  0.8872E-01
     -5.406  0.2084E+00  0.8278E-01  0.1962E+00
     -5.293  0.2163E+00  0.1135E+00  0.2868E+00
     -5.180  0.1329E+00  0.8493E-01  0.2713E+00
     -5.067  0.1206E+00  0.7156E-01  0.3007E+00
     -4.953  0.2028E+00  0.9881E-01  0.4948E+00
     -4.840  0.2363E+00  0.1103E+00  0.7076E+00
     -4.727  0.2051E+00  0.9563E-01  0.8920E+00
     -4.614  0.1683E+00  0.9060E-01  0.1132E+01
     -4.501  0.1178E+00  0.8804E-01  0.1268E+01
     -4.387  0.6844E-01  0.8059E-01  0.1390E+01
     -4.274  0.4146E-01  0.8401E-01  0.1688E+01
     -4.161  0.2936E-01  0.8918E-01  0.1892E+01
     -4.048  0.2553E-01  0.7703E-01  0.1867E+01
     -3.935  0.2614E-01  0.6238E-01  0.1917E+01
     -3.821  0.3816E-01  0.6861E-01  0.2181E+01
     -3.708  0.6363E-01  0.9307E-01  0.2770E+01
     -3.595  0.7390E-01  0.1081E+00  0.3603E+01
     -3.482  0.5379E-01  0.1045E+00  0.4406E+01
     -3.369  0.4619E-01  0.1319E+00  0.5242E+01
     -3.255  0.7344E-01  0.1967E+00  0.5327E+01
     -3.142  0.9226E-01  0.2242E+00  0.4483E+01
     -3.029  0.6912E-01  0.1717E+00  0.3714E+01
     -2.916  0.3796E-01  0.9230E-01  0.3593E+01
     -2.803  0.3530E-01  0.7132E-01  0.4336E+01
     -2.689  0.5012E-01  0.9764E-01  0.5131E+01
     -2.576  0.5219E-01  0.9668E-01  0.5260E+01
     -2.463  0.3972E-01  0.6965E-01  0.5228E+01
     -2.350  0.3574E-01  0.6073E-01  0.5022E+01
     -2.237  0.3713E-01  0.5681E-01  0.3787E+01
     -2.123  0.3701E-01  0.4652E-01  0.1911E+01
     -2.010  0.4867E-01  0.5209E-01  0.7777E+00
     -1.897  0.7703E-01  0.6915E-01  0.5036E+00
     -1.784  0.9308E-01  0.7905E-01  0.3819E+00
     -1.671  0.7100E-01  0.7640E-01  0.1983E+00
     -1.557  0.4366E-01  0.6435E-01  0.8977E-01
     -1.444  0.3329E-01  0.4449E-01  0.6216E-01
     -1.331  0.2869E-01  0.2560E-01  0.4696E-01
     -1.218  0.3431E-01  0.3817E-01  0.6787E-01
     -1.105  0.5364E-01  0.8400E-01  0.1447E+00
     -0.991  0.7520E-01  0.1290E+00  0.2067E+00
     -0.878  0.8380E-01  0.1599E+00  0.1977E+00
     -0.765  0.7239E-01  0.1430E+00  0.1508E+00
     -0.652  0.7918E-01  0.1136E+00  0.1617E+00
     -0.539  0.1089E+00  0.1666E+00  0.2280E+00
     -0.425  0.9033E-01  0.2077E+00  0.1932E+00
     -0.312  0.4111E-01  0.1662E+00  0.9156E-01
     -0.199  0.2462E-01  0.1139E+00  0.5609E-01
     -0.086  0.2751E-01  0.8124E-01  0.6507E-01
      0.027  0.2669E-01  0.8984E-01  0.7911E-01
      0.141  0.1817E-01  0.9832E-01  0.6800E-01
      0.254  0.1827E-01  0.9938E-01  0.4292E-01
      0.367  0.4882E-01  0.1588E+00  0.6618E-01
      0.480  0.7916E-01  0.2349E+00  0.1050E+00
      0.594  0.8370E-01  0.2593E+00  0.1136E+00
      0.707  0.7237E-01  0.2328E+00  0.1075E+00
      0.820  0.5080E-01  0.1651E+00  0.9265E-01
      0.933  0.3423E-01  0.1156E+00  0.7238E-01
      1.046  0.2878E-01  0.1273E+00  0.5961E-01
      1.160  0.2852E-01  0.1471E+00  0.6882E-01
      1.273  0.2753E-01  0.1366E+00  0.7838E-01
      1.386  0.2156E-01  0.1271E+00  0.6614E-01
      1.499  0.1663E-01  0.1687E+00  0.7083E-01
      1.612  0.1290E-01  0.2069E+00  0.8072E-01
      1.726  0.8339E-02  0.1490E+00  0.5199E-01
      1.839  0.1904E-01  0.1129E+00  0.4612E-01
      1.952  0.4162E-01  0.1950E+00  0.9301E-01
      2.065  0.4666E-01  0.2203E+00  0.1049E+00
      2.178  0.4352E-01  0.1623E+00  0.8098E-01
      2.292  0.3906E-01  0.1198E+00  0.6757E-01
      2.405  0.2464E-01  0.8655E-01  0.5161E-01
      2.518  0.1066E-01  0.6077E-01  0.3097E-01
      2.631  0.5106E-02  0.4478E-01  0.1767E-01
      2.744  0.7257E-02  0.4537E-01  0.1752E-01
      2.858  0.1022E-01  0.6902E-01  0.2758E-01
      2.971  0.7457E-02  0.8734E-01  0.3745E-01
      3.084  0.7910E-02  0.1004E+00  0.5220E-01
      3.197  0.2177E-01  0.1125E+00  0.6624E-01
      3.310  0.3484E-01  0.8397E-01  0.5315E-01
      3.424  0.3479E-01  0.2763E-01  0.2729E-01
      3.537  0.5023E-01  0.1265E-01  0.3161E-01
      3.650  0.7497E-01  0.5572E-01  0.6054E-01
      3.763  0.8470E-01  0.1325E+00  0.9420E-01
      3.876  0.1032E+00  0.1703E+00  0.1120E+00
      3.990  0.9969E-01  0.1226E+00  0.8972E-01
      4.103  0.6340E-01  0.7859E-01  0.7325E-01
      4.216  0.4802E-01  0.8775E-01  0.7967E-01
      4.329  0.6134E-01  0.9434E-01  0.7146E-01
      4.442  0.5932E-01  0.7822E-01  0.5247E-01
      4.556  0.5294E-01  0.8195E-01  0.4510E-01
      4.669  0.1343E+00  0.1283E+00  0.7764E-01
      4.782  0.2382E+00  0.1591E+00  0.1239E+00
      4.895  0.2257E+00  0.1596E+00  0.1376E+00
      5.008  0.1453E+00  0.1566E+00  0.1286E+00
      5.122  0.6627E-01  0.1239E+00  0.9480E-01
      5.235  0.1840E-01  0.7041E-01  0.4552E-01
      5.348  0.1133E-01  0.3804E-01  0.1688E-01
      5.461  0.3201E-01  0.5480E-01  0.3014E-01
      5.574  0.9466E-01  0.1393E+00  0.9258E-01
      5.688  0.1390E+00  0.1908E+00  0.1295E+00
      5.801  0.8425E-01  0.1096E+00  0.7437E-01
      5.914  0.1222E-01  0.1433E-01  0.9852E-02
      6.027 -0.6336E-02 -0.8491E-02 -0.5686E-02
      6.140 -0.2571E-02 -0.3313E-02 -0.2250E-02
      6.254 -0.3575E-03 -0.4590E-03 -0.3157E-03
      6.367 -0.2332E-04 -0.3032E-04 -0.2112E-04
      6.480 -0.7727E-06 -0.1030E-05 -0.7246E-06
      6.593 -0.1342E-07 -0.1852E-07 -0.1310E-07
      6.706 -0.1240E-09 -0.1783E-09 -0.1262E-09
      6.820 -0.6141E-12 -0.9223E-12 -0.6502E-12
      6.933 -0.1625E-14 -0.2549E-14 -0.1779E-14
      7.046 -0.1170E-17 -0.2901E-17 -0.1876E-17
      7.159  0.0000E+00  0.0000E+00  0.0000E+00
      7.272  0.0000E+00  0.0000E+00  0.0000E+00
      7.386  0.0000E+00  0.0000E+00  0.0000E+00
      7.499  0.0000E+00  0.0000E+00  0.0000E+00
      7.612  0.0000E+00  0.0000E+00  0.0000E+00
      7.725  0.0000E+00  0.0000E+00  0.0000E+00
      7.72529600    -26.23557670  301     -0.79392958      1.00000000
    -26.236  0.0000E+00  0.0000E+00  0.0000E+00
    -26.122  0.0000E+00  0.0000E+00  0.0000E+00
    -26.009  0.0000E+00  0.0000E+00  0.0000E+00
    -25.896 -0.4656E-39 -0.1335E-38 -0.2820E-37
    -25.783 -0.3801E-35 -0.1090E-34 -0.2302E-33
    -25.670 -0.1626E-31 -0.4665E-31 -0.9847E-30
    -25.556 -0.3642E-28 -0.1045E-27 -0.2206E-26
    -25.443 -0.4265E-25 -0.1225E-24 -0.2584E-23
    -25.330 -0.2522E-22 -0.7247E-22 -0.1528E-20
    -25.217 -0.7969E-20 -0.2291E-19 -0.4827E-18
    -25.104 -0.1302E-17 -0.3746E-17 -0.7891E-16
    -24.990 -0.1093E-15 -0.3146E-15 -0.6624E-14
    -24.877 -0.4653E-14 -0.1340E-13 -0.2819E-12
    -24.764 -0.9787E-13 -0.2819E-12 -0.5931E-11
    -24.651 -0.9595E-12 -0.2765E-11 -0.5814E-10
    -24.538 -0.3595E-11 -0.1037E-10 -0.2179E-09
    -24.424  0.1521E-11  0.4352E-11  0.9210E-10
    -24.311  0.3806E-10  0.1097E-09  0.2307E-08
    -24.198  0.7739E-10  0.2233E-09  0.4691E-08
    -24.085  0.5502E-10  0.1589E-09  0.3335E-08
    -23.972  0.9748E-11  0.2820E-10  0.5910E-09
    -23.858 -0.3918E-11 -0.1131E-10 -0.2375E-09
    -23.745 -0.1699E-11 -0.4909E-11 -0.1030E-09
    -23.632 -0.2306E-12 -0.6668E-12 -0.1398E-10
    -23.519 -0.1403E-13 -0.4060E-13 -0.8508E-12
    -23.406 -0.4163E-15 -0.1205E-14 -0.2524E-13
    -23.292 -0.6219E-17 -0.1801E-16 -0.3771E-15
    -23.179 -0.4755E-19 -0.1378E-18 -0.2883E-17
    -23.066 -0.1877E-21 -0.5441E-21 -0.1138E-19
    -22.953 -0.3870E-24 -0.1134E-23 -0.2365E-22
    -22.839  0.0000E+00  0.0000E+00  0.0000E+00
    -22.726  0.0000E+00  0.0000E+00  0.0000E+00
    -22.613  0.0000E+00  0.0000E+00  0.0000E+00
    -22.500  0.0000E+00  0.0000E+00  0.0000E+00
    -22.387  0.0000E+00  0.0000E+00  0.0000E+00
    -22.273  0.0000E+00  0.0000E+00  0.0000E+00
    -22.160  0.0000E+00  0.0000E+00  0.0000E+00
    -22.047  0.0000E+00  0.0000E+00  0.0000E+00
    -21.934  0.0000E+00  0.0000E+00  0.0000E+00
    -21.821  0.0000E+00  0.0000E+00  0.0000E+00
    -21.707  0.0000E+00  0.0000E+00  0.0000E+00
    -21.594  0.0000E+00  0.0000E+00  0.0000E+00
    -21.481  0.0000E+00  0.0000E+00  0.0000E+00
    -21.368  0.0000E+00  0.0000E+00  0.0000E+00
    -21.255  0.0000E+00  0.0000E+00  0.0000E+00
    -21.141  0.0000E+00  0.0000E+00  0.0000E+00
    -21.028  0.0000E+00  0.0000E+00  0.0000E+00
    -20.915  0.0000E+00  0.0000E+00  0.0000E+00
    -20.802  0.0000E+00  0.0000E+00  0.0000E+00
    -20.689  0.0000E+00  0.0000E+00  0.0000E+00
    -20.575  0.0000E+00  0.0000E+00  0.0000E+00
    -20.462  0.0000E+00  0.0000E+00  0.0000E+00
    -20.349  0.0000E+00  0.0000E+00  0.0000E+00
    -20.236  0.0000E+00  0.0000E+00  0.0000E+00
    -20.123  0.0000E+00  0.0000E+00  0.0000E+00
    -20.009  0.0000E+00  0.0000E+00  0.0000E+00
    -19.896  0.0000E+00  0.0000E+00  0.0000E+00
    -19.783  0.0000E+00  0.0000E+00  0.0000E+00
    -19.670  0.0000E+00  0.0000E+00  0.0000E+00
    -19.557  0.0000E+00  0.0000E+00  0.0000E+00
    -19.443  0.0000E+00  0.0000E+00  0.0000E+00
    -19.330  0.0000E+00  0.0000E+00  0.0000E+00
    -19.217  0.0000E+00  0.0000E+00  0.0000E+00
    -19.104  0.0000E+00  0.0000E+00  0.0000E+00
    -18.991  0.0000E+00  0.0000E+00  0.0000E+00
    -18.877  0.0000E+00  0.0000E+00  0.0000E+00
    -18.764  0.0000E+00  0.0000E+00  0.0000E+00
    -18.651  0.0000E+00  0.0000E+00  0.0000E+00
    -18.538  0.0000E+00  0.0000E+00  0.0000E+00
    -18.425  0.0000E+00  0.0000E+00  0.0000E+00
    -18.311  0.0000E+00  0.0000E+00  0.0000E+00
    -18.198  0.0000E+00  0.0000E+00  0.0000E+00
    -18.085  0.0000E+00  0.0000E+00  0.0000E+00
    -17.972  0.0000E+00  0.0000E+00  0.0000E+00
    -17.859  0.0000E+00  0.0000E+00  0.0000E+00
    -17.745  0.0000E+00  0.0000E+00  0.0000E+00
    -17.632  0.0000E+00  0.0000E+00  0.0000E+00
    -17.519  0.0000E+00  0.0000E+00  0.0000E+00
    -17.406  0.0000E+00  0.0000E+00  0.0000E+00
    -17.293  0.0000E+00  0.0000E+00  0.0000E+00
    -17.179  0.0000E+00  0.0000E+00  0.0000E+00
    -17.066  0.0000E+00  0.0000E+00  0.0000E+00
    -16.953  0.0000E+00  0.0000E+00  0.0000E+00
    -16.840  0.0000E+00  0.0000E+00  0.0000E+00
    -16.727  0.0000E+00  0.0000E+00  0.0000E+00
    -16.613  0.0000E+00  0.0000E+00  0.0000E+00
    -16.500  0.0000E+00  0.0000E+00  0.0000E+00
    -16.387  0.0000E+00  0.0000E+00  0.0000E+00
    -16.274  0.0000E+00  0.0000E+00  0.0000E+00
    -16.161  0.0000E+00  0.0000E+00  0.0000E+00