   18   18    1    1
  0.3430412E+02  0.5199964E-09  0.5199964E-09  0.2636863E-08  0.5000000E-15
  1.000000000000000E-004
  CAR 
 unknown system                          
    186     13    112
 
  0.0000000E+00  0.0000000E+00  0.0000000E+00  0.4000000E-01
    1      -24.234927   1.000000
    2      -11.121446   1.000000
    3       -9.255614   1.000000
    4       -8.336605   1.000000
    5       -7.498789   1.000000
    6       -7.388428   1.000000
    7       -7.387826   1.000000
    8       -6.147856   1.000000
    9       -5.554547   1.000000
   10       -5.338249   1.000000
   11       -5.338222   1.000000
   12       -5.286307   1.000000
   13       -5.213735   1.000000
   14       -5.206990   1.000000
   15       -5.206971   1.000000
   16       -4.957235   1.000000
   17       -4.957230   1.000000
   18       -4.859820   1.000000
   19       -4.814863   1.000000
   20       -4.814815   1.000000
   21       -4.813211   1.000000
   22       -4.773818   1.000000
   23       -4.773774   1.000000
   24       -4.693687   1.000000
   25       -4.449719   1.000000
   26       -4.449685   1.000000
   27       -4.340569   1.000000
   28       -3.990015   1.000000
   29       -3.989973   1.000000
   30       -3.881423   1.000000
   31       -3.830129   1.000000
   32       -3.734536   1.000000
   33       -3.734448   1.000000
   34       -3.690915   1.000000
   35       -3.684882   1.000000
   36       -3.684829   1.000000
   37       -3.634025   1.000000
   38       -3.599723   1.000000
   39       -3.599651   1.000000
   40       -3.549687   1.000000
   41       -3.549564   1.000000
   42       -3.542326   1.000000
   43       -3.523643   1.000000
   44       -3.523555   1.000000
   45       -3.474951   1.000000
   46       -3.474936   1.000000
   47       -3.435028   1.000000
   48       -3.352333   1.000000
   49       -3.352191   1.000000
   50       -3.308371   1.000000
   51       -3.242593   1.000000
   52       -3.234349   1.000000
   53       -3.234336   1.000000
   54       -3.146348   1.000000
   55       -3.146341   1.000000
   56       -2.965497   1.000000
   57       -2.924144   1.000000
   58       -2.924105   1.000000
   59       -2.839810   1.000000
   60       -2.839762   1.000000
   61       -2.785245   1.000000
   62       -2.766668   1.000000
   63       -2.766666   1.000000
   64       -2.659740   1.000000
   65       -2.659727   1.000000
   66       -2.585552   1.000000
   67       -2.585506   1.000000
   68       -2.558934   1.000000
   69       -2.556819   1.000000
   70       -2.439864   1.000000
   71       -2.439854   1.000000
   72       -2.408221   1.000000
   73       -2.401120   1.000000
   74       -2.401089   1.000000
   75       -2.379319   1.000000
   76       -2.379252   1.000000
   77       -2.369358   1.000000
   78       -2.323996   1.000000
   79       -2.323953   1.000000
   80       -2.322326   1.000000
   81       -2.305040   1.000000
   82       -2.304962   1.000000
   83       -2.222934   1.000000
   84       -2.222849   1.000000
   85       -2.202364   1.000000
   86       -2.148852   1.000000
   87       -2.135916   1.000000
   88       -2.135821   1.000000
   89       -1.538640   1.000001
   90       -1.079111   1.030787
   91       -1.079084   1.030793
   92       -0.936098   0.963601
   93       -0.411360  -0.010486
   94       -0.232151  -0.000261
   95       -0.232080  -0.000261
   96        0.208419  -0.000000
   97        0.267783  -0.000000
   98        0.267830  -0.000000
   99        0.674908  -0.000000
  100        0.674922  -0.000000
  101        0.709153  -0.000000
  102        1.381514  -0.000000
  103        1.381760  -0.000000
  104        2.253575  -0.000000
  105        3.244526  -0.000000
  106        3.313589  -0.000000
  107        3.313710  -0.000000
  108        3.619620  -0.000000
  109        3.664500  -0.000000
  110        4.373203  -0.000000
  111        4.373338  -0.000000
  112        4.489781  -0.000000
 
  0.2000000E+00 -0.1387779E-16  0.0000000E+00  0.8000000E-01
    1      -24.235577   1.000000
    2      -11.071280   1.000000
    3       -8.976502   1.000000
    4       -8.195050   1.000000
    5       -7.469166   1.000000
    6       -7.393843   1.000000
    7       -7.290324   1.000000
    8       -5.945495   1.000000
    9       -5.656757   1.000000
   10       -5.384952   1.000000
   11       -5.309304   1.000000
   12       -5.270114   1.000000
   13       -5.231047   1.000000
   14       -5.130703   1.000000
   15       -5.119868   1.000000
   16       -4.976351   1.000000
   17       -4.867862   1.000000
   18       -4.821027   1.000000
   19       -4.737576   1.000000
   20       -4.717180   1.000000
   21       -4.713660   1.000000
   22       -4.661646   1.000000
   23       -4.649847   1.000000
   24       -4.588868   1.000000
   25       -4.386540   1.000000
   26       -4.382024   1.000000
   27       -4.304334   1.000000
   28       -4.017495   1.000000
   29       -3.997896   1.000000
   30       -3.933955   1.000000
   31       -3.898192   1.000000
   32       -3.794475   1.000000
   33       -3.734789   1.000000
   34       -3.715854   1.000000
   35       -3.687194   1.000000
   36       -3.671249   1.000000
   37       -3.667514   1.000000
   38       -3.637623   1.000000
   39       -3.624021   1.000000
   40       -3.592948   1.000000
   41       -3.589755   1.000000
   42       -3.549496   1.000000
   43       -3.541046   1.000000
   44       -3.503841   1.000000
   45       -3.481895   1.000000
   46       -3.466378   1.000000
   47       -3.458405   1.000000
   48       -3.452712   1.000000
   49       -3.388820   1.000000
   50       -3.375010   1.000000
   51       -3.335157   1.000000
   52       -3.270250   1.000000
   53       -3.219700   1.000000
   54       -3.210066   1.000000
   55       -3.171143   1.000000
   56       -3.167298   1.000000
   57       -2.996973   1.000000
   58       -2.955024   1.000000
   59       -2.954981   1.000000
   60       -2.906158   1.000000
   61       -2.863374   1.000000
   62       -2.845403   1.000000
   63       -2.817244   1.000000
   64       -2.770302   1.000000
   65       -2.764477   1.000000
   66       -2.757397   1.000000
   67       -2.707029   1.000000
   68       -2.683482   1.000000
   69       -2.641373   1.000000
   70       -2.608000   1.000000
   71       -2.567303   1.000000
   72       -2.528890   1.000000
   73       -2.507226   1.000000
   74       -2.483449   1.000000
   75       -2.479546   1.000000
   76       -2.450735   1.000000
   77       -2.446709   1.000000
   78       -2.428723   1.000000
   79       -2.404276   1.000000
   80       -2.385565   1.000000
   81       -2.364211   1.000000
   82       -2.343079   1.000000
   83       -2.338036   1.000000
   84       -2.316174   1.000000
   85       -2.298343   1.000000
   86       -2.256530   1.000000
   87       -2.250876   1.000000
   88       -2.245025   1.000000
   89       -2.093038   1.000000
   90       -1.704808   1.000000
   91       -1.133975   1.018537
   92       -1.035586   1.035415
   93       -0.837530   0.679716
   94       -0.527346  -0.033908
   95       -0.488882  -0.026513
   96       -0.298957  -0.001295
   97        0.329592  -0.000000
   98        0.450645  -0.000000
   99        1.086200  -0.000000
  100        1.409108  -0.000000
  101        1.633929  -0.000000
  102        2.083786  -0.000000
  103        2.194007  -0.000000
  104        2.952216  -0.000000
  105        3.514571  -0.000000
  106        3.601148  -0.000000
  107        3.812678  -0.000000
  108        3.961372  -0.000000
  109        4.142629  -0.000000
  110        4.724758   0.000000
  111        4.762177   0.000000
  112        4.822666   0.000000
 
  0.4000000E+00 -0.2775558E-16  0.0000000E+00  0.8000000E-01
    1      -24.235562   1.000000
    2      -10.991553   1.000000
    3       -8.242109   1.000000
    4       -7.870191   1.000000
    5       -7.553225   1.000000
    6       -7.402042   1.000000
    7       -6.797298   1.000000
    8       -6.690404   1.000000
    9       -5.856851   1.000000
   10       -5.384391   1.000000
   11       -5.149211   1.000000
   12       -5.128508   1.000000
   13       -4.985916   1.000000
   14       -4.938972   1.000000
   15       -4.905797   1.000000
   16       -4.891760   1.000000
   17       -4.694430   1.000000
   18       -4.691285   1.000000
   19       -4.635938   1.000000
   20       -4.499433   1.000000
   21       -4.497139   1.000000
   22       -4.460483   1.000000
   23       -4.377392   1.000000
   24       -4.372821   1.000000
   25       -4.227334   1.000000
   26       -4.211794   1.000000
   27       -4.177249   1.000000
   28       -4.155059   1.000000
   29       -4.112738   1.000000
   30       -4.087597   1.000000
   31       -3.990662   1.000000
   32       -3.948354   1.000000
   33       -3.928338   1.000000
   34       -3.865837   1.000000
   35       -3.860979   1.000000
   36       -3.839037   1.000000
   37       -3.810602   1.000000
   38       -3.784708   1.000000
   39       -3.748089   1.000000
   40       -3.746230   1.000000
   41       -3.688076   1.000000
   42       -3.610538   1.000000
   43       -3.604575   1.000000
   44       -3.571001   1.000000
   45       -3.534365   1.000000
   46       -3.465736   1.000000
   47       -3.457246   1.000000
   48       -3.404140   1.000000
   49       -3.398415   1.000000
   50       -3.393202   1.000000
   51       -3.391404   1.000000
   52       -3.335329   1.000000
   53       -3.303650   1.000000
   54       -3.299403   1.000000
   55       -3.265721   1.000000
   56       -3.260602   1.000000
   57       -3.211744   1.000000
   58       -3.198018   1.000000
   59       -3.174759   1.000000
   60       -3.147879   1.000000
   61       -3.110969   1.000000
   62       -3.081616   1.000000
   63       -3.039083   1.000000
   64       -2.942928   1.000000
   65       -2.933575   1.000000
   66       -2.925447   1.000000
   67       -2.884978   1.000000
   68       -2.851453   1.000000
   69       -2.839243   1.000000
   70       -2.815568   1.000000
   71       -2.793700   1.000000
   72       -2.767939   1.000000
   73       -2.743411   1.000000
   74       -2.723614   1.000000
   75       -2.715912   1.000000
   76       -2.643904   1.000000
   77       -2.640729   1.000000
   78       -2.602867   1.000000
   79       -2.572566   1.000000
   80       -2.549668   1.000000
   81       -2.515916   1.000000
   82       -2.462302   1.000000
   83       -2.385867   1.000000
   84       -2.367501   1.000000
   85       -2.359199   1.000000
   86       -2.303113   1.000000
   87       -2.298041   1.000000
   88       -2.258163   1.000000
   89       -2.247445   1.000000
   90       -1.848271   1.000000
   91       -1.326140   1.000547
   92       -1.020581   1.034002
   93       -0.899741   0.885638
   94       -0.616857  -0.008780
   95       -0.502781  -0.029572
   96        0.004673  -0.000000
   97        0.411946  -0.000000
   98        0.557487  -0.000000
   99        0.990405  -0.000000
  100        1.913558  -0.000000
  101        1.937508  -0.000000
  102        2.537047  -0.000000
  103        3.220726  -0.000000
  104        3.808460  -0.000000
  105        4.257335  -0.000000
  106        4.429546  -0.000000
  107        4.653344  -0.000000
  108        4.843175   0.000000
  109        5.023217   0.000000
  110        5.577423   0.000000
  111        5.653051   0.000000
  112        5.679994   0.000000
 
  0.0000000E+00  0.2000000E+00  0.0000000E+00  0.8000000E-01
    1      -24.235577   1.000000
    2      -11.071280   1.000000
    3       -8.976502   1.000000
    4       -8.195050   1.000000
    5       -7.469166   1.000000
    6       -7.393843   1.000000
    7       -7.290324   1.000000
    8       -5.945495   1.000000
    9       -5.656756   1.000000
   10       -5.384952   1.000000
   11       -5.309304   1.000000
   12       -5.270114   1.000000
   13       -5.231046   1.000000
   14       -5.130701   1.000000
   15       -5.119870   1.000000
   16       -4.976350   1.000000
   17       -4.867864   1.000000
   18       -4.821026   1.000000
   19       -4.737576   1.000000
   20       -4.717180   1.000000
   21       -4.713660   1.000000
   22       -4.661646   1.000000
   23       -4.649849   1.000000
   24       -4.588866   1.000000
   25       -4.386539   1.000000
   26       -4.382026   1.000000
   27       -4.304333   1.000000
   28       -4.017492   1.000000
   29       -3.997899   1.000000
   30       -3.933955   1.000000
   31       -3.898192   1.000000
   32       -3.794474   1.000000
   33       -3.734788   1.000000
   34       -3.715857   1.000000
   35       -3.687192   1.000000
   36       -3.671248   1.000000
   37       -3.667516   1.000000
   38       -3.637624   1.000000
   39       -3.624022   1.000000
   40       -3.592948   1.000000
   41       -3.589755   1.000000
   42       -3.549494   1.000000
   43       -3.541046   1.000000
   44       -3.503838   1.000000
   45       -3.481897   1.000000
   46       -3.466378   1.000000
   47       -3.458404   1.000000
   48       -3.452712   1.000000
   49       -3.388818   1.000000
   50       -3.375010   1.000000
   51       -3.335159   1.000000
   52       -3.270251   1.000000
   53       -3.219699   1.000000
   54       -3.210067   1.000000
   55       -3.171141   1.000000
   56       -3.167300   1.000000
   57       -2.996971   1.000000
   58       -2.955025   1.000000
   59       -2.954979   1.000000
   60       -2.906158   1.000000
   61       -2.863376   1.000000
   62       -2.845400   1.000000
   63       -2.817243   1.000000
   64       -2.770303   1.000000
   65       -2.764478   1.000000
   66       -2.757399   1.000000
   67       -2.707029   1.000000
   68       -2.683485   1.000000
   69       -2.641372   1.000000
   70       -2.608000   1.000000
   71       -2.567302   1.000000
   72       -2.528889   1.000000
   73       -2.507224   1.000000
   74       -2.483447   1.000000
   75       -2.479548   1.000000
   76       -2.450736   1.000000
   77       -2.446709   1.000000
   78       -2.428719   1.000000
   79       -2.404278   1.000000
   80       -2.385569   1.000000
   81       -2.364208   1.000000
   82       -2.343086   1.000000
   83       -2.338035   1.000000
   84       -2.316174   1.000000
   85       -2.298339   1.000000
   86       -2.256529   1.000000
   87       -2.250877   1.000000
   88       -2.245023   1.000000
   89       -2.093038   1.000000
   90       -1.704809   1.000000
   91       -1.133976   1.018537
   92       -1.035584   1.035415
   93       -0.837531   0.679720
   94       -0.527346  -0.033908
   95       -0.488882  -0.026513
   96       -0.298957  -0.001295
   97        0.329592  -0.000000
   98        0.450646  -0.000000
   99        1.086199  -0.000000
  100        1.409108  -0.000000
  101        1.633929  -0.000000
  102        2.083787  -0.000000
  103        2.194006  -0.000000
  104        2.952216  -0.000000
  105        3.514571  -0.000000
  106        3.601148  -0.000000
  107        3.812678  -0.000000
  108        3.961372  -0.000000
  109        4.142629  -0.000000
  110        4.724758   0.000000
  111        4.762175   0.000000
  112        4.822666   0.000000
 
  0.2000000E+00  0.2000000E+00  0.0000000E+00  0.8000000E-01
    1      -24.235562   1.000000
    2      -11.071278   1.000000
    3       -8.976505   1.000000
    4       -8.195054   1.000000
    5       -7.469631   1.000000
    6       -7.393440   1.000000
    7       -7.290480   1.000000
    8       -5.945500   1.000000
    9       -5.656798   1.000000
   10       -5.384946   1.000000
   11       -5.309320   1.000000
   12       -5.270083   1.000000
   13       -5.231035   1.000000
   14       -5.130704   1.000000
   15       -5.119879   1.000000
   16       -4.976348   1.000000
   17       -4.867864   1.000000
   18       -4.821026   1.000000
   19       -4.737489   1.000000
   20       -4.717237   1.000000
   21       -4.713699   1.000000
   22       -4.661597   1.000000
   23       -4.649869   1.000000
   24       -4.588876   1.000000
   25       -4.386529   1.000000
   26       -4.382060   1.000000
   27       -4.304326   1.000000
   28       -4.017509   1.000000
   29       -3.997925   1.000000
   30       -3.933901   1.000000
   31       -3.898170   1.000000
   32       -3.794421   1.000000
   33       -3.734817   1.000000
   34       -3.715831   1.000000
   35       -3.687150   1.000000
   36       -3.671252   1.000000
   37       -3.667454   1.000000
   38       -3.637611   1.000000
   39       -3.624034   1.000000
   40       -3.593006   1.000000
   41       -3.589674   1.000000
   42       -3.549459   1.000000
   43       -3.541060   1.000000
   44       -3.503888   1.000000
   45       -3.481844   1.000000
   46       -3.466380   1.000000
   47       -3.458488   1.000000
   48       -3.452800   1.000000
   49       -3.388831   1.000000
   50       -3.374928   1.000000
   51       -3.335122   1.000000
   52       -3.270334   1.000000
   53       -3.219733   1.000000
   54       -3.210077   1.000000
   55       -3.171144   1.000000
   56       -3.167302   1.000000
   57       -2.996997   1.000000
   58       -2.955009   1.000000
   59       -2.954987   1.000000
   60       -2.906182   1.000000
   61       -2.863363   1.000000
   62       -2.845398   1.000000
   63       -2.817255   1.000000
   64       -2.770275   1.000000
   65       -2.764454   1.000000
   66       -2.757379   1.000000
   67       -2.707046   1.000000
   68       -2.683459   1.000000
   69       -2.641347   1.000000
   70       -2.608048   1.000000
   71       -2.567354   1.000000
   72       -2.528909   1.000000
   73       -2.507247   1.000000
   74       -2.483454   1.000000
   75       -2.479535   1.000000
   76       -2.450815   1.000000
   77       -2.446726   1.000000
   78       -2.428778   1.000000
   79       -2.404282   1.000000
   80       -2.385631   1.000000
   81       -2.364181   1.000000
   82       -2.342979   1.000000
   83       -2.338074   1.000000
   84       -2.316175   1.000000
   85       -2.298412   1.000000
   86       -2.256408   1.000000
   87       -2.250740   1.000000
   88       -2.245125   1.000000
   89       -2.093005   1.000000
   90       -1.704806   1.000000
   91       -1.133930   1.018547
   92       -1.035521   1.035413
   93       -0.837518   0.679671
   94       -0.527284  -0.033900
   95       -0.488962  -0.026532
   96       -0.298854  -0.001292
   97        0.329713  -0.000000
   98        0.450787  -0.000000
   99        1.086068  -0.000000
  100        1.409221  -0.000000
  101        1.633836  -0.000000
  102        2.083478  -0.000000
  103        2.194041  -0.000000
  104        2.952221  -0.000000
  105        3.514724  -0.000000
  106        3.601044  -0.000000
  107        3.812498  -0.000000
  108        3.961264  -0.000000
  109        4.143049  -0.000000
  110        4.724570   0.000000
  111        4.761794   0.000000
  112        4.823438   0.000000
 
  0.4000000E+00  0.2000000E+00  0.0000000E+00  0.8000000E-01
    1      -24.235352   1.000000
    2      -11.007097   1.000000
    3       -8.454619   1.000000
    4       -7.969623   1.000000
    5       -7.511302   1.000000
    6       -7.419348   1.000000
    7       -6.913243   1.000000
    8       -5.985558   1.000000
    9       -5.975511   1.000000
   10       -5.568216   1.000000
   11       -5.400777   1.000000
   12       -5.341291   1.000000
   13       -5.032297   1.000000
   14       -4.902970   1.000000
   15       -4.881019   1.000000
   16       -4.858257   1.000000
   17       -4.823317   1.000000
   18       -4.598169   1.000000
   19       -4.592639   1.000000
   20       -4.587241   1.000000
   21       -4.551978   1.000000
   22       -4.489970   1.000000
   23       -4.469450   1.000000
   24       -4.428558   1.000000
   25       -4.265865   1.000000
   26       -4.250845   1.000000
   27       -4.229483   1.000000
   28       -4.134792   1.000000
   29       -4.042544   1.000000
   30       -4.027278   1.000000
   31       -3.990422   1.000000
   32       -3.944130   1.000000
   33       -3.900850   1.000000
   34       -3.833368   1.000000
   35       -3.820075   1.000000
   36       -3.795380   1.000000
   37       -3.792082   1.000000
   38       -3.762885   1.000000
   39       -3.698560   1.000000
   40       -3.661658   1.000000
   41       -3.616565   1.000000
   42       -3.602128   1.000000
   43       -3.570802   1.000000
   44       -3.551950   1.000000
   45       -3.528942   1.000000
   46       -3.484591   1.000000
   47       -3.456965   1.000000
   48       -3.425518   1.000000
   49       -3.421070   1.000000
   50       -3.401717   1.000000
   51       -3.358029   1.000000
   52       -3.352252   1.000000
   53       -3.303526   1.000000
   54       -3.249940   1.000000
   55       -3.227434   1.000000
   56       -3.221918   1.000000
   57       -3.205096   1.000000
   58       -3.145420   1.000000
   59       -3.116872   1.000000
   60       -3.079088   1.000000
   61       -3.069162   1.000000
   62       -3.046747   1.000000
   63       -3.018659   1.000000
   64       -2.971937   1.000000
   65       -2.912023   1.000000
   66       -2.879044   1.000000
   67       -2.846150   1.000000
   68       -2.804765   1.000000
   69       -2.794462   1.000000
   70       -2.787739   1.000000
   71       -2.706947   1.000000
   72       -2.703930   1.000000
   73       -2.687502   1.000000
   74       -2.666478   1.000000
   75       -2.634374   1.000000
   76       -2.595701   1.000000
   77       -2.516078   1.000000
   78       -2.495119   1.000000
   79       -2.485251   1.000000
   80       -2.458390   1.000000
   81       -2.434084   1.000000
   82       -2.424668   1.000000
   83       -2.396639   1.000000
   84       -2.349621   1.000000
   85       -2.342029   1.000000
   86       -2.329274   1.000000
   87       -2.305897   1.000000
   88       -2.150720   1.000000
   89       -2.113893   1.000000
   90       -2.008320   1.000000
   91       -1.935230   1.000000
   92       -1.530622   1.000001
   93       -0.951755   0.987213
   94       -0.822612   0.619991
   95        0.069258  -0.000000
   96        0.601463  -0.000000
   97        0.711664  -0.000000
   98        0.802709  -0.000000
   99        1.183977  -0.000000
  100        1.566811  -0.000000
  101        1.981375  -0.000000
  102        2.176933  -0.000000
  103        2.791261  -0.000000
  104        3.201700  -0.000000
  105        3.944947  -0.000000
  106        4.112349  -0.000000
  107        4.388064  -0.000000
  108        4.573411  -0.000000
  109        4.946020   0.000000
  110        5.322946   0.000000
  111        5.424212   0.000000
  112        5.562041   0.000000
 
 -0.4000000E+00  0.2000000E+00  0.0000000E+00  0.8000000E-01
    1      -24.235555   1.000000
    2      -10.968670   1.000000
    3       -8.010629   1.000000
    4       -7.619322   1.000000
    5       -7.452233   1.000000
    6       -7.220520   1.000000
    7       -7.169034   1.000000
    8       -6.213694   1.000000
    9       -6.124756   1.000000
   10       -6.037661   1.000000
   11       -5.373808   1.000000
   12       -5.054602   1.000000
   13       -4.945313   1.000000
   14       -4.733779   1.000000
   15       -4.661175   1.000000
   16       -4.621602   1.000000
   17       -4.607893   1.000000
   18       -4.578320   1.000000
   19       -4.524703   1.000000
   20       -4.420291   1.000000
   21       -4.387613   1.000000
   22       -4.314862   1.000000
   23       -4.307920   1.000000
   24       -4.302096   1.000000
   25       -4.281385   1.000000
   26       -4.248233   1.000000
   27       -4.206353   1.000000
   28       -4.154990   1.000000
   29       -4.133962   1.000000
   30       -4.107699   1.000000
   31       -4.078499   1.000000
   32       -4.059734   1.000000
   33       -4.039884   1.000000
   34       -3.995647   1.000000
   35       -3.893371   1.000000
   36       -3.885139   1.000000
   37       -3.877613   1.000000
   38       -3.860061   1.000000
   39       -3.818076   1.000000
   40       -3.780633   1.000000
   41       -3.759549   1.000000
   42       -3.712969   1.000000
   43       -3.672647   1.000000
   44       -3.656821   1.000000
   45       -3.633611   1.000000
   46       -3.630468   1.000000
   47       -3.589024   1.000000
   48       -3.542480   1.000000
   49       -3.512080   1.000000
   50       -3.434784   1.000000
   51       -3.406595   1.000000
   52       -3.380198   1.000000
   53       -3.368988   1.000000
   54       -3.328060   1.000000
   55       -3.303030   1.000000
   56       -3.280237   1.000000
   57       -3.232353   1.000000
   58       -3.150663   1.000000
   59       -3.141410   1.000000
   60       -3.095920   1.000000
   61       -3.081796   1.000000
   62       -3.035938   1.000000
   63       -3.015794   1.000000
   64       -2.995218   1.000000
   65       -2.974086   1.000000
   66       -2.914315   1.000000
   67       -2.895454   1.000000
   68       -2.869920   1.000000
   69       -2.828185   1.000000
   70       -2.814559   1.000000
   71       -2.781949   1.000000
   72       -2.753808   1.000000
   73       -2.736321   1.000000
   74       -2.710720   1.000000
   75       -2.660967   1.000000
   76       -2.640692   1.000000
   77       -2.610844   1.000000
   78       -2.579885   1.000000
   79       -2.549030   1.000000
   80       -2.541299   1.000000
   81       -2.524803   1.000000
   82       -2.465773   1.000000
   83       -2.458350   1.000000
   84       -2.429405   1.000000
   85       -2.409877   1.000000
   86       -2.372350   1.000000
   87       -2.347001   1.000000
   88       -2.337860   1.000000
   89       -2.194668   1.000000
   90       -2.016266   1.000000
   91       -1.859432   1.000000
   92       -1.773256   1.000000
   93       -1.129093   1.019613
   94       -0.608020  -0.016187
   95       -0.182252  -0.000067
   96        0.622483  -0.000000
   97        0.871352  -0.000000
   98        1.237474  -0.000000
   99        1.528369  -0.000000
  100        1.934135  -0.000000
  101        2.341558  -0.000000
  102        2.935691  -0.000000
  103        3.091993  -0.000000
  104        3.759700  -0.000000
  105        3.877279  -0.000000
  106        4.250624  -0.000000
  107        4.622348  -0.000000
  108        4.920634   0.000000
  109        5.074085   0.000000
  110        5.170093   0.000000
  111        5.616309   0.000000
  112        5.714674   0.000000
 
 -0.2000000E+00  0.2000000E+00  0.0000000E+00  0.8000000E-01
    1      -24.235359   1.000000
    2      -11.007097   1.000000
    3       -8.454608   1.000000
    4       -7.969628   1.000000
    5       -7.510623   1.000000
    6       -7.419948   1.000000
    7       -6.913165   1.000000
    8       -5.985546   1.000000
    9       -5.975518   1.000000
   10       -5.568201   1.000000
   11       -5.400776   1.000000
   12       -5.341279   1.000000
   13       -5.032299   1.000000
   14       -4.902982   1.000000
   15       -4.881041   1.000000
   16       -4.858248   1.000000
   17       -4.823321   1.000000
   18       -4.598184   1.000000
   19       -4.592665   1.000000
   20       -4.587242   1.000000
   21       -4.551896   1.000000
   22       -4.490002   1.000000
   23       -4.469495   1.000000
   24       -4.428569   1.000000
   25       -4.265864   1.000000
   26       -4.250812   1.000000
   27       -4.229447   1.000000
   28       -4.134781   1.000000
   29       -4.042571   1.000000
   30       -4.027296   1.000000
   31       -3.990421   1.000000
   32       -3.944143   1.000000
   33       -3.900883   1.000000
   34       -3.833391   1.000000
   35       -3.820070   1.000000
   36       -3.795406   1.000000
   37       -3.792111   1.000000
   38       -3.762882   1.000000
   39       -3.698583   1.000000
   40       -3.661697   1.000000
   41       -3.616569   1.000000
   42       -3.602116   1.000000
   43       -3.570821   1.000000
   44       -3.551974   1.000000
   45       -3.528967   1.000000
   46       -3.484595   1.000000
   47       -3.456939   1.000000
   48       -3.425525   1.000000
   49       -3.421061   1.000000
   50       -3.401700   1.000000
   51       -3.358049   1.000000
   52       -3.352231   1.000000
   53       -3.303468   1.000000
   54       -3.249878   1.000000
   55       -3.227417   1.000000
   56       -3.221891   1.000000
   57       -3.205038   1.000000
   58       -3.145421   1.000000
   59       -3.116814   1.000000
   60       -3.079110   1.000000
   61       -3.069116   1.000000
   62       -3.046732   1.000000
   63       -3.018668   1.000000
   64       -2.971918   1.000000
   65       -2.911983   1.000000
   66       -2.879042   1.000000
   67       -2.846126   1.000000
   68       -2.804760   1.000000
   69       -2.794419   1.000000
   70       -2.787694   1.000000
   71       -2.706872   1.000000
   72       -2.703891   1.000000
   73       -2.687497   1.000000
   74       -2.666454   1.000000
   75       -2.634433   1.000000
   76       -2.595717   1.000000
   77       -2.516092   1.000000
   78       -2.495129   1.000000
   79       -2.485279   1.000000
   80       -2.458424   1.000000
   81       -2.434120   1.000000
   82       -2.424672   1.000000
   83       -2.396647   1.000000
   84       -2.349658   1.000000
   85       -2.342067   1.000000
   86       -2.329318   1.000000
   87       -2.305939   1.000000
   88       -2.150749   1.000000
   89       -2.113937   1.000000
   90       -2.008356   1.000000
   91       -1.935265   1.000000
   92       -1.530650   1.000001
   93       -0.951670   0.987101
   94       -0.822680   0.620270
   95        0.069184  -0.000000
   96        0.601495  -0.000000
   97        0.711726  -0.000000
   98        0.802682  -0.000000
   99        1.183764  -0.000000
  100        1.566680  -0.000000
  101        1.981077  -0.000000
  102        2.177016  -0.000000
  103        2.791648  -0.000000