PROCAR new format
# of k-points:   13         # of bands:  112         # of ions:   18

 k-point     1 :    0.00000000 0.00000000 0.00000000     weight = 0.04000000

band     1 # energy  -24.23492656 # occ.  2.00000000
 
ion      s      p      d    tot
    1  0.000  0.000  0.000  0.000
    2  0.000  0.000  0.000  0.000
    3  0.000  0.000  0.000  0.000
    4  0.000  0.000  0.000  0.000
    5  0.000  0.000  0.000  0.000
    6  0.000  0.000  0.000  0.000
    7  0.000  0.000  0.000  0.000
    8  0.000  0.000  0.000  0.000
    9  0.000  0.000  0.000  0.000
   10  0.000  0.000  0.000  0.000
   11  0.000  0.000  0.000  0.000
   12  0.000  0.000  0.000  0.000
   13  0.000  0.000  0.000  0.001
   14  0.000  0.000  0.000  0.001
   15  0.000  0.000  0.000  0.000
   16  0.000  0.000  0.000  0.001
   17  0.130  0.093  0.013  0.236
   18  0.559  0.076  0.005  0.639
tot    0.690  0.170  0.019  0.879
 
band     2 # energy  -11.12144601 # occ.  2.00000000
 
ion      s      p      d    tot
    1  0.000  0.000  0.000  0.000
    2  0.000  0.000  0.000  0.000
    3  0.000  0.000  0.000  0.000
    4  0.000  0.000  0.000  0.000
    5  0.000  0.000  0.000  0.000
    6  0.000  0.000  0.000  0.000
    7  0.000  0.000  0.000  0.000
    8  0.000  0.000  0.000  0.000
    9  0.004  0.001  0.000  0.004
   10  0.004  0.001  0.000  0.004
   11  0.004  0.001  0.000  0.004
   12  0.005  0.001  0.000  0.006
   13  0.062  0.023  0.026  0.111
   14  0.062  0.023  0.026  0.111
   15  0.013  0.000  0.001  0.014
   16  0.062  0.023  0.026  0.111
   17  0.226  0.026  0.000  0.253
   18  0.094  0.074  0.001  0.170
tot    0.536  0.171  0.082  0.788
 
band     3 # energy   -9.25561441 # occ.  2.00000000
 
ion      s      p      d    tot
    1  0.028  0.004  0.000  0.031
    2  0.028  0.004  0.000  0.031
    3  0.028  0.004  0.000  0.031
    4  0.028  0.004  0.000  0.031
    5  0.091  0.000  0.000  0.092
    6  0.093  0.000  0.000  0.094
    7  0.091  0.000  0.000  0.092
    8  0.091  0.000  0.000  0.092
    9  0.079  0.001  0.000  0.080
   10  0.079  0.001  0.000  0.080
   11  0.079  0.001  0.000  0.080
   12  0.073  0.001  0.000  0.074
   13  0.011  0.005  0.001  0.017
   14  0.011  0.005  0.001  0.017
   15  0.018  0.004  0.000  0.022
   16  0.011  0.005  0.001  0.017
   17  0.010  0.002  0.000  0.012
   18  0.010  0.028  0.000  0.039
tot    0.860  0.070  0.004  0.933
 
band     4 # energy   -8.33660494 # occ.  2.00000000
 
ion      s      p      d    tot
    1  0.029  0.002  0.000  0.032
    2  0.029  0.002  0.000  0.032
    3  0.029  0.002  0.000  0.031
    4  0.029  0.002  0.000  0.032
    5  0.026  0.003  0.001  0.030
    6  0.027  0.003  0.001  0.030
    7  0.026  0.003  0.001  0.030
    8  0.026  0.003  0.001  0.030
    9  0.005  0.007  0.000  0.012
   10  0.005  0.007  0.000  0.012
   11  0.005  0.007  0.000  0.012
   12  0.008  0.007  0.000  0.015
   13  0.049  0.002  0.008  0.059
   14  0.049  0.002  0.008  0.059
   15  0.032  0.000  0.002  0.034
   16  0.049  0.002  0.008  0.059
   17  0.007  0.077  0.001  0.085
   18  0.044  0.237  0.003  0.284
tot    0.474  0.365  0.036  0.874
 
band     5 # energy   -7.49878902 # occ.  2.00000000
 
ion      s      p      d    tot
    1  0.052  0.001  0.004  0.056
    2  0.052  0.001  0.004  0.056
    3  0.052  0.001  0.003  0.056
    4  0.052  0.001  0.004  0.056
    5  0.003  0.014  0.000  0.018
    6  0.003  0.015  0.000  0.019
    7  0.003  0.014  0.000  0.018
    8  0.003  0.014  0.000  0.018
    9  0.057  0.001  0.005  0.063
   10  0.057  0.001  0.005  0.063
   11  0.057  0.001  0.005  0.063
   12  0.049  0.000  0.008  0.057
   13  0.000  0.019  0.026  0.045
   14  0.000  0.019  0.026  0.045
   15  0.016  0.007  0.001  0.023
   16  0.000  0.019  0.026  0.045
   17  0.004  0.076  0.001  0.081
   18  0.011  0.117  0.001  0.129
tot    0.470  0.320  0.120  0.910
 
band     6 # energy   -7.38842756 # occ.  2.00000000
 
ion      s      p      d    tot
    1  0.000  0.000  0.000  0.000
    2  0.000  0.000  0.000  0.000
    3  0.000  0.000  0.000  0.000
    4  0.000  0.000  0.000  0.000
    5  0.000  0.000  0.000  0.000
    6  0.000  0.000  0.000  0.000
    7  0.000  0.000  0.000  0.000
    8  0.000  0.000  0.000  0.000
    9  0.000  0.000  0.000  0.000
   10  0.000  0.000  0.000  0.001
   11  0.000  0.000  0.000  0.001
   12  0.000  0.000  0.001  0.001
   13  0.005  0.004  0.020  0.029
   14  0.019  0.010  0.024  0.053
   15  0.000  0.001  0.004  0.005
   16  0.005  0.004  0.020  0.029
   17  0.000  0.175  0.004  0.179
   18  0.000  0.365  0.005  0.370
tot    0.028  0.559  0.080  0.667
 
band     7 # energy   -7.38782593 # occ.  2.00000000
 
ion      s      p      d    tot
    1  0.000  0.000  0.000  0.000
    2  0.000  0.000  0.000  0.000
    3  0.000  0.000  0.000  0.000
    4  0.000  0.000  0.000  0.000
    5  0.000  0.000  0.000  0.000
    6  0.000  0.000  0.000  0.000
    7  0.000  0.000  0.000  0.000
    8  0.000  0.000  0.000  0.000
    9  0.000  0.000  0.000  0.001
   10  0.000  0.000  0.000  0.000
   11  0.000  0.000  0.000  0.000
   12  0.000  0.000  0.001  0.001
   13  0.014  0.008  0.023  0.045
   14  0.000  0.002  0.019  0.021
   15  0.000  0.001  0.004  0.005
   16  0.014  0.008  0.023  0.045
   17  0.000  0.175  0.004  0.179
   18  0.000  0.365  0.005  0.370
tot    0.028  0.559  0.080  0.667
 
band     8 # energy   -6.14785576 # occ.  2.00000000
 
ion      s      p      d    tot
    1  0.048  0.001  0.026  0.075
    2  0.048  0.001  0.026  0.075
    3  0.047  0.001  0.026  0.074
    4  0.048  0.001  0.026  0.075
    5  0.027  0.008  0.022  0.057
    6  0.024  0.007  0.024  0.055
    7  0.027  0.008  0.022  0.057
    8  0.027  0.008  0.022  0.057
    9  0.000  0.018  0.001  0.019
   10  0.000  0.018  0.001  0.019
   11  0.000  0.018  0.001  0.019
   12  0.001  0.011  0.001  0.013
   13  0.020  0.007  0.048  0.075
   14  0.020  0.007  0.048  0.075
   15  0.074  0.001  0.012  0.086
   16  0.020  0.007  0.048  0.075
   17  0.006  0.017  0.000  0.023
   18  0.000  0.013  0.000  0.013
tot    0.437  0.147  0.355  0.940
 
band     9 # energy   -5.55454738 # occ.  2.00000000
 
ion      s      p      d    tot
    1  0.006  0.002  0.016  0.024
    2  0.006  0.002  0.016  0.024
    3  0.011  0.001  0.010  0.022
    4  0.006  0.002  0.016  0.024
    5  0.008  0.001  0.051  0.060
    6  0.027  0.000  0.032  0.059
    7  0.008  0.001  0.051  0.060
    8  0.008  0.001  0.051  0.060
    9  0.010  0.000  0.068  0.079
   10  0.010  0.000  0.068  0.079
   11  0.010  0.000  0.068  0.079
   12  0.046  0.000  0.022  0.068
   13  0.011  0.000  0.076  0.087
   14  0.011  0.000  0.076  0.087
   15  0.049  0.001  0.030  0.079
   16  0.011  0.000  0.076  0.087
   17  0.002  0.003  0.000  0.005
   18  0.000  0.002  0.000  0.002
tot    0.242  0.015  0.726  0.984
 
band    10 # energy   -5.33824857 # occ.  2.00000000
 
ion      s      p      d    tot
    1  0.003  0.002  0.018  0.022
    2  0.010  0.003  0.008  0.021
    3  0.000  0.002  0.020  0.022
    4  0.002  0.002  0.018  0.022
    5  0.013  0.001  0.101  0.115
    6  0.000  0.001  0.122  0.122
    7  0.055  0.001  0.026  0.082
    8  0.014  0.001  0.099  0.114
    9  0.052  0.001  0.032  0.085
   10  0.013  0.001  0.075  0.089
   11  0.013  0.001  0.076  0.089
   12  0.000  0.000  0.092  0.092
   13  0.003  0.002  0.028  0.033
   14  0.011  0.003  0.007  0.020
   15  0.000  0.003  0.030  0.032
   16  0.003  0.002  0.029  0.034
   17  0.000  0.000  0.000  0.000
   18  0.000  0.003  0.000  0.003
tot    0.191  0.027  0.781  0.999
 
band    11 # energy   -5.33822206 # occ.  2.00000000
 
ion      s      p      d    tot
    1  0.007  0.003  0.011  0.021
    2  0.000  0.002  0.021  0.023
    3  0.000  0.002  0.020  0.022
    4  0.007  0.003  0.011  0.021
    5  0.041  0.001  0.050  0.092
    6  0.000  0.001  0.122  0.122
    7  0.000  0.001  0.125  0.125
    8  0.041  0.001  0.052  0.093
    9  0.000  0.001  0.090  0.091
   10  0.039  0.001  0.047  0.086
   11  0.039  0.001  0.046  0.086
   12  0.000  0.000  0.092  0.092
   13  0.008  0.002  0.014  0.025
   14  0.000  0.002  0.036  0.038
   15  0.000  0.003  0.030  0.032
   16  0.008  0.002  0.014  0.025
   17  0.000  0.000  0.000  0.000
   18  0.000  0.003  0.000  0.003
tot    0.191  0.027  0.781  0.999
 
band    12 # energy   -5.28630743 # occ.  2.00000000
 
ion      s      p      d    tot
    1  0.002  0.003  0.028  0.033
    2  0.002  0.003  0.028  0.033
    3  0.008  0.003  0.010  0.021
    4  0.002  0.003  0.028  0.033
    5  0.013  0.000  0.126  0.139
    6  0.074  0.001  0.031  0.106
    7  0.013  0.000  0.126  0.139
    8  0.013  0.000  0.126  0.139
    9  0.007  0.003  0.077  0.087
   10  0.007  0.003  0.077  0.087
   11  0.007  0.003  0.077  0.087
   12  0.019  0.001  0.021  0.041
   13  0.003  0.003  0.002  0.009
   14  0.003  0.003  0.002  0.009
   15  0.000  0.002  0.020  0.023
   16  0.003  0.003  0.002  0.009
   17  0.001  0.002  0.000  0.004
   18  0.000  0.002  0.000  0.002
tot    0.177  0.041  0.779  0.997
 
band    13 # energy   -5.21373532 # occ.  2.00000000
 
ion      s      p      d    tot
    1  0.001  0.001  0.018  0.020
    2  0.001  0.001  0.018  0.020
    3  0.004  0.001  0.000  0.005
    4  0.001  0.001  0.018  0.020
    5  0.000  0.001  0.094  0.096
    6  0.005  0.000  0.005  0.010
    7  0.000  0.001  0.094  0.096
    8  0.000  0.001  0.094  0.096
    9  0.006  0.000  0.129  0.135
   10  0.006  0.000  0.129  0.136
   11  0.006  0.000  0.129  0.136
   12  0.039  0.000  0.002  0.042
   13  0.000  0.005  0.044  0.049
   14  0.000  0.005  0.044  0.049
   15  0.004  0.000  0.007  0.011
   16  0.000  0.005  0.045  0.049
   17  0.000  0.000  0.000  0.000
   18  0.000  0.000  0.000  0.000
tot    0.075  0.025  0.870  0.969
 
band    14 # energy   -5.20698999 # occ.  2.00000000
 
ion      s      p      d    tot
    1  0.001  0.001  0.007  0.009
    2  0.000  0.002  0.022  0.024
    3  0.000  0.002  0.021  0.024
    4  0.001  0.001  0.008  0.010
    5  0.011  0.001  0.045  0.057
    6  0.000  0.001  0.121  0.122
    7  0.000  0.001  0.119  0.120
    8  0.013  0.000  0.035  0.048
    9  0.000  0.001  0.136  0.137
   10  0.019  0.000  0.040  0.059
   11  0.017  0.000  0.052  0.069
   12  0.000  0.000  0.138  0.138
   13  0.002  0.001  0.017  0.020
   14  0.000  0.003  0.055  0.058
   15  0.000  0.004  0.038  0.043
   16  0.002  0.001  0.021  0.024
   17  0.000  0.000  0.000  0.000
   18  0.000  0.006  0.000  0.006
tot    0.066  0.027  0.875  0.967
 
band    15 # energy   -5.20697147 # occ.  2.00000000
 
ion      s      p      d    tot
    1  0.000  0.002  0.018  0.020
    2  0.001  0.000  0.003  0.005
    3  0.000  0.002  0.021  0.024
    4  0.000  0.002  0.016  0.018
    5  0.005  0.001  0.088  0.093
    6  0.000  0.001  0.121  0.122
    7  0.016  0.000  0.014  0.030
    8  0.003  0.001  0.098  0.102
    9  0.024  0.000  0.016  0.040
   10  0.005  0.001  0.112  0.117
   11  0.007  0.001  0.100  0.108
   12  0.000  0.000  0.138  0.138
   13  0.001  0.002  0.045  0.048
   14  0.003  0.000  0.007  0.010
   15  0.000  0.004  0.038  0.043
   16  0.001  0.002  0.040  0.043
   17  0.000  0.000  0.000  0.000
   18  0.000  0.006  0.000  0.006
tot    0.066  0.027  0.875  0.967
 
band    16 # energy   -4.95723458 # occ.  2.00000000
 
ion      s      p      d    tot
    1  0.000  0.001  0.005  0.005
    2  0.000  0.001  0.012  0.014
    3  0.000  0.001  0.012  0.014
    4  0.000  0.001  0.007  0.008
    5  0.009  0.000  0.028  0.037
    6  0.000  0.000  0.057  0.057
    7  0.000  0.000  0.057  0.058
    8  0.013  0.000  0.013  0.026
    9  0.000  0.008  0.005  0.013
   10  0.001  0.004  0.004  0.009
   11  0.001  0.005  0.005  0.010
   12  0.000  0.008  0.008  0.017
   13  0.036  0.001  0.055  0.093
   14  0.001  0.000  0.262  0.263
   15  0.000  0.000  0.168  0.168
   16  0.024  0.001  0.128  0.153
   17  0.000  0.000  0.001  0.001
   18  0.000  0.025  0.000  0.025
tot    0.086  0.058  0.827  0.972
 
band    17 # energy   -4.95722988 # occ.  2.00000000
 
ion      s      p      d    tot
    1  0.000  0.001  0.012  0.013
    2  0.000  0.000  0.004  0.005
    3  0.000  0.001  0.012  0.014
    4  0.000  0.001  0.009  0.010
    5  0.006  0.000  0.037  0.043
    6  0.000  0.000  0.057  0.057
    7  0.014  0.000  0.008  0.023
    8  0.002  0.000  0.053  0.055
    9  0.001  0.004  0.004  0.009
   10  0.000  0.007  0.005  0.013
   11  0.000  0.006  0.005  0.011
   12  0.000  0.008  0.008  0.017
   13  0.005  0.000  0.241  0.246
   14  0.040  0.002  0.034  0.076
   15  0.000  0.000  0.168  0.168
   16  0.017  0.001  0.169  0.187
   17  0.000  0.000  0.001  0.001
   18  0.000  0.025  0.000  0.025
tot    0.086  0.058  0.827  0.972
 
band    18 # energy   -4.85981992 # occ.  2.00000000
 
ion      s      p      d    tot
    1  0.001  0.001  0.050  0.052
    2  0.001  0.001  0.050  0.052
    3  0.009  0.000  0.005  0.014
    4  0.001  0.001  0.050  0.052
    5  0.001  0.001  0.056  0.058
    6  0.004  0.000  0.015  0.018
    7  0.001  0.001  0.056  0.058
    8  0.001  0.001  0.056  0.058
    9  0.000  0.006  0.030  0.036
   10  0.000  0.006  0.030  0.036
   11  0.000  0.006  0.030  0.036
   12  0.000  0.000  0.000  0.000
   13  0.004  0.002  0.148  0.154
   14  0.004  0.002  0.148  0.154
   15  0.023  0.001  0.002  0.026
   16  0.004  0.002  0.148  0.154
   17  0.001  0.003  0.000  0.005
   18  0.000  0.004  0.000  0.004
tot    0.055  0.040  0.873  0.968
 
band    19 # energy   -4.81486294 # occ.  2.00000000
 
ion      s      p      d    tot
    1  0.020  0.003  0.026  0.049
    2  0.000  0.001  0.068  0.069
    3  0.000  0.001  0.066  0.067
    4  0.019  0.003  0.027  0.049
    5  0.000  0.003  0.050  0.054
    6  0.000  0.003  0.096  0.099
    7  0.000  0.003  0.101  0.104
    8  0.000  0.003  0.048  0.052
    9  0.000  0.000  0.120  0.120
   10  0.005  0.002  0.064  0.071
   11  0.005  0.002  0.065  0.072
   12  0.000  0.000  0.130  0.130
   13  0.001  0.001  0.021  0.023
   14  0.000  0.000  0.006  0.006
   15  0.000  0.000  0.003  0.003
   16  0.001  0.001  0.020  0.023
   17  0.000  0.000  0.000  0.000
   18  0.000  0.000  0.000  0.000
tot    0.052  0.028  0.911  0.991
 
band    20 # energy   -4.81481541 # occ.  2.00000000
 
ion      s      p      d    tot
    1  0.006  0.002  0.055  0.063
    2  0.027  0.004  0.012  0.042
    3  0.000  0.001  0.066  0.067
    4  0.007  0.002  0.054  0.062
    5  0.000  0.003  0.083  0.086
    6  0.000  0.003  0.096  0.099
    7  0.000  0.003  0.031  0.035
    8  0.000  0.003  0.084  0.088
    9  0.007  0.003  0.045  0.055
   10  0.002  0.001  0.103  0.105
   11  0.002  0.001  0.101  0.104
   12  0.000  0.000  0.130  0.130
   13  0.000  0.000  0.010  0.011
   14  0.001  0.002  0.025  0.029
   15  0.000  0.000  0.003  0.003
   16  0.000  0.000  0.011  0.012
   17  0.000  0.000  0.000  0.000
   18  0.000  0.000  0.000  0.000
tot    0.052  0.028  0.911  0.991
 
band    21 # energy   -4.81321129 # occ.  2.00000000
 
ion      s      p      d    tot
    1  0.003  0.001  0.051  0.055
    2  0.003  0.001  0.052  0.056
    3  0.028  0.004  0.007  0.039
    4  0.003  0.001  0.051  0.055
    5  0.000  0.003  0.096  0.099
    6  0.001  0.004  0.029  0.034
    7  0.000  0.003  0.097  0.100
    8  0.000  0.003  0.096  0.099
    9  0.001  0.000  0.122  0.122
   10  0.001  0.000  0.121  0.121
   11  0.001  0.000  0.120  0.121
   12  0.008  0.002  0.039  0.048
   13  0.000  0.000  0.005  0.006
   14  0.000  0.000  0.005  0.006
   15  0.003  0.003  0.022  0.028
   16  0.000  0.000  0.005  0.006
   17  0.000  0.000  0.000  0.000
   18  0.000  0.000  0.000  0.000
tot    0.052  0.027  0.917  0.996
 
band    22 # energy   -4.77381754 # occ.  2.00000000
 
ion      s      p      d    tot
    1  0.020  0.000  0.061  0.081
    2  0.000  0.000  0.166  0.166
    3  0.000  0.000  0.160  0.160
    4  0.019  0.000  0.068  0.087
    5  0.001  0.002  0.056  0.058
    6  0.000  0.006  0.025  0.031
    7  0.000  0.006  0.026  0.032
    8  0.001  0.002  0.058  0.060
    9  0.000  0.000  0.039  0.039
   10  0.002  0.000  0.040  0.043
   11  0.002  0.000  0.040  0.043
   12  0.000  0.000  0.043  0.043
   13  0.000  0.001  0.026  0.027
   14  0.000  0.002  0.047  0.049
   15  0.000  0.003  0.034  0.037
   16  0.000  0.001  0.028  0.029
   17  0.000  0.000  0.000  0.000
   18  0.000  0.001  0.000  0.001
tot    0.045  0.026  0.918  0.988
 
band    23 # energy   -4.77377423 # occ.  2.00000000
 
ion      s      p      d    tot
    1  0.006  0.000  0.135  0.141
    2  0.026  0.000  0.031  0.057
    3  0.000  0.000  0.160  0.160
    4  0.007  0.000  0.129  0.136
    5  0.000  0.005  0.037  0.042
    6  0.000  0.006  0.025  0.031
    7  0.001  0.001  0.067  0.068
    8  0.000  0.005  0.035  0.041
    9  0.003  0.000  0.041  0.044
   10  0.001  0.000  0.040  0.041
   11  0.001  0.000  0.040  0.041
   12  0.000  0.000  0.043  0.043
   13  0.000  0.002  0.041  0.043
   14  0.000  0.001  0.020  0.021
   15  0.000  0.003  0.034  0.037
   16  0.000  0.002  0.040  0.042
   17  0.000  0.000  0.000  0.000
   18  0.000  0.001  0.000  0.001
tot    0.045  0.026  0.918  0.988
 
band    24 # energy   -4.69368726 # occ.  2.00000000
 
ion      s      p      d    tot
    1  0.002  0.001  0.144  0.147
    2  0.002  0.001  0.144  0.147
    3  0.020  0.000  0.020  0.041
    4  0.002  0.001  0.144  0.147
    5  0.000  0.004  0.030  0.034
    6  0.002  0.002  0.054  0.058
    7  0.000  0.004  0.030  0.034
    8  0.000  0.004  0.030  0.034
    9  0.001  0.003  0.009  0.013
   10  0.001  0.003  0.009  0.013
   11  0.001  0.003  0.009  0.013
   12  0.011  0.000  0.049  0.060
   13  0.002  0.007  0.065  0.075
   14  0.002  0.007  0.065  0.075
   15  0.004  0.000  0.000  0.004
   16  0.002  0.007  0.065  0.075
   17  0.003  0.005  0.000  0.008
   18  0.000  0.006  0.000  0.006
tot    0.058  0.059  0.867  0.983
 
band    25 # energy   -4.44971950 # occ.  2.00000000
 
ion      s      p      d    tot
    1  0.000  0.002  0.055  0.057
    2  0.000  0.003  0.097  0.101
    3  0.000  0.003  0.094  0.097
    4  0.000  0.002  0.056  0.059
    5  0.001  0.004  0.040  0.045
    6  0.000  0.001  0.056  0.057
    7  0.000  0.001  0.059  0.061
    8  0.001  0.004  0.039  0.044
    9  0.000  0.006  0.030  0.037
   10  0.000  0.006  0.017  0.023
   11  0.000  0.006  0.017  0.024
   12  0.000  0.008  0.041  0.048
   13  0.000  0.002  0.072  0.074
   14  0.000  0.002  0.103  0.104
   15  0.000  0.003  0.064  0.067
   16  0.000  0.002  0.073  0.075
   17  0.000  0.000  0.000  0.000
   18  0.000  0.009  0.000  0.009
tot    0.003  0.064  0.915  0.982
 
band    26 # energy   -4.44968456 # occ.  2.00000000
 
ion      s      p      d    tot
    1  0.000  0.003  0.084  0.087
    2  0.000  0.002  0.042  0.044
    3  0.000  0.003  0.094  0.097
    4  0.000  0.003  0.083  0.085
    5  0.000  0.002  0.052  0.055
    6  0.000  0.001  0.056  0.057
    7  0.001  0.005  0.033  0.039
    8  0.000  0.002  0.053  0.056
    9  0.000  0.007  0.012  0.019
   10  0.000  0.006  0.026  0.032
   11  0.000  0.006  0.026  0.032
   12  0.000  0.008  0.041  0.048
   13  0.000  0.002  0.093  0.095
   14  0.000  0.002  0.063  0.065
   15  0.000  0.003  0.064  0.067
   16  0.000  0.002  0.092  0.094
   17  0.000  0.000  0.000  0.000
   18  0.000  0.009  0.000  0.009
tot    0.003  0.064  0.915  0.982
 
band    27 # energy   -4.34056911 # occ.  2.00000000
 
ion      s      p      d    tot
    1  0.000  0.003  0.075  0.078
    2  0.000  0.003  0.075  0.078
    3  0.000  0.002  0.030  0.032
    4  0.000  0.003  0.075  0.078
    5  0.000  0.007  0.037  0.043
    6  0.001  0.007  0.017  0.025
    7  0.000  0.007  0.037  0.043
    8  0.000  0.007  0.037  0.043
    9  0.000  0.003  0.041  0.045
   10  0.000  0.003  0.041  0.045
   11  0.000  0.003  0.041  0.045
   12  0.004  0.005  0.045  0.054
   13  0.000  0.013  0.097  0.110
   14  0.000  0.013  0.097  0.110
   15  0.000  0.004  0.014  0.018
   16  0.000  0.013  0.097  0.110
   17  0.003  0.006  0.001  0.010
   18  0.000  0.007  0.000  0.007
tot    0.009  0.108  0.857  0.974
 
band    28 # energy   -3.99001494 # occ.  2.00000000
 
ion      s      p      d    tot
    1  0.000  0.000  0.028  0.029
    2  0.000  0.001  0.092  0.092
    3  0.000  0.001  0.093  0.094
    4  0.000  0.000  0.034  0.034
    5  0.000  0.007  0.005  0.013
    6  0.000  0.007  0.008  0.016
    7  0.000  0.007  0.006  0.013
    8  0.000  0.007  0.005  0.013
    9  0.000  0.001  0.097  0.098
   10  0.000  0.005  0.039  0.044
   11  0.000  0.005  0.044  0.049
   12  0.000  0.001  0.052  0.053
   13  0.000  0.001  0.089  0.091
   14  0.000  0.000  0.171  0.171
   15  0.000  0.000  0.048  0.048
   16  0.000  0.001  0.096  0.098
   17  0.000  0.000  0.001  0.001
   18  0.000  0.010  0.000  0.010
tot    0.002  0.056  0.908  0.966
 
band    29 # energy   -3.98997296 # occ.  2.00000000
 
ion      s      p      d    tot
    1  0.000  0.001  0.074  0.075
    2  0.000  0.000  0.011  0.011
    3  0.000  0.001  0.093  0.094
    4  0.000  0.001  0.069  0.069
    5  0.000  0.007  0.006  0.013
    6  0.000  0.007  0.008  0.016
    7  0.001  0.008  0.005  0.013
    8  0.000  0.007  0.006  0.013
    9  0.000  0.006  0.023  0.029
   10  0.000  0.002  0.081  0.083
   11  0.000  0.002  0.076  0.078
   12  0.000  0.001  0.052  0.053
   13  0.000  0.001  0.148  0.149
   14  0.001  0.001  0.067  0.069
   15  0.000  0.000  0.048  0.048
   16  0.000  0.001  0.141  0.142
   17  0.000  0.000  0.001  0.001
   18  0.000  0.010  0.000  0.010
tot    0.002  0.056  0.908  0.966
 
band    30 # energy   -3.88142326 # occ.  2.00000000
 
ion      s      p      d    tot
    1  0.000  0.000  0.085  0.086
    2  0.000  0.000  0.085  0.086
    3  0.000  0.000  0.006  0.006
    4  0.000  0.000  0.085  0.086
    5  0.000  0.007  0.019  0.025
    6  0.000  0.006  0.011  0.017
    7  0.000  0.007  0.019  0.025
    8  0.000  0.007  0.019  0.025
    9  0.000  0.006  0.050  0.056
   10  0.000  0.006  0.050  0.056
   11  0.000  0.006  0.050  0.056
   12  0.002  0.006  0.089  0.097
   13  0.000  0.008  0.092  0.101
   14  0.000  0.008  0.092  0.101
   15  0.000  0.000  0.033  0.033
   16  0.000  0.008  0.092  0.101
   17  0.002  0.004  0.000  0.006
   18  0.000  0.003  0.000  0.003
tot    0.006  0.082  0.879  0.966
 
band    31 # energy   -3.83012905 # occ.  2.00000000
 
ion      s      p      d    tot
    1  0.000  0.001  0.015  0.016
    2  0.000  0.001  0.015  0.016
    3  0.000  0.001  0.026  0.028
    4  0.000  0.001  0.015  0.016
    5  0.001  0.001  0.007  0.009
    6  0.000  0.001  0.009  0.011
    7  0.001  0.001  0.007  0.009
    8  0.001  0.001  0.007  0.009
    9  0.000  0.004  0.062  0.066
   10  0.000  0.004  0.062  0.066
   11  0.000  0.004  0.062  0.066
   12  0.002  0.011  0.227  0.240
   13  0.002  0.008  0.125  0.135
   14  0.002  0.008  0.125  0.135
   15  0.000  0.003  0.027  0.030
   16  0.002  0.008  0.125  0.135
   17  0.001  0.001  0.000  0.002
   18  0.000  0.000  0.000  0.000
tot    0.014  0.059  0.915  0.988
 
band    32 # energy   -3.73453645 # occ.  2.00000000
 
ion      s      p      d    tot
    1  0.000  0.000  0.033  0.034
    2  0.000  0.000  0.075  0.076
    3  0.000  0.000  0.055  0.055
    4  0.000  0.000  0.034  0.034
    5  0.000  0.001  0.071  0.072
    6  0.000  0.002  0.039  0.041
    7  0.000  0.002  0.085  0.086
    8  0.000  0.001  0.071  0.072
    9  0.000  0.002  0.044  0.045
   10  0.000  0.002  0.037  0.039
   11  0.000  0.002  0.037  0.039
   12  0.000  0.001  0.018  0.019
   13  0.000  0.000  0.110  0.110
   14  0.000  0.000  0.088  0.088
   15  0.000  0.000  0.060  0.060
   16  0.000  0.000  0.110  0.110
   17  0.000  0.000  0.000  0.001
   18  0.000  0.004  0.000  0.004
tot    0.001  0.018  0.966  0.985
 
band    33 # energy   -3.73444827 # occ.  2.00000000
 
ion      s      p      d    tot
    1  0.000  0.000  0.062  0.062
    2  0.000  0.000  0.019  0.020
    3  0.000  0.000  0.055  0.055
    4  0.000  0.000  0.061  0.062
    5  0.000  0.001  0.080  0.081
    6  0.000  0.002  0.039  0.041
    7  0.000  0.001  0.067  0.068
    8  0.000  0.001  0.080  0.081
    9  0.000  0.002  0.035  0.036
   10  0.000  0.002  0.042  0.043
   11  0.000  0.002  0.041  0.043
   12  0.000  0.001  0.018  0.019
   13  0.000  0.000  0.095  0.095
   14  0.000  0.001  0.117  0.118
   15  0.000  0.000  0.060  0.060
   16  0.000  0.000  0.095  0.096
   17  0.000  0.000  0.000  0.001
   18  0.000  0.004  0.000  0.004
tot    0.001  0.018  0.966  0.985
 
band    34 # energy   -3.69091484 # occ.  2.00000000
 
ion      s      p      d    tot
    1  0.000  0.000  0.064  0.064
    2  0.000  0.000  0.064  0.064
    3  0.000  0.002  0.063  0.066
    4  0.000  0.000  0.064  0.064
    5  0.000  0.000  0.129  0.130
    6  0.000  0.000  0.041  0.041
    7  0.000  0.000  0.129  0.130
    8  0.000  0.000  0.129  0.130
    9  0.000  0.001  0.054  0.055
   10  0.000  0.001  0.054  0.055
   11  0.000  0.001  0.054  0.055
   12  0.000  0.004  0.075  0.080
   13  0.000  0.000  0.011  0.012
   14  0.000  0.000  0.010  0.011
   15  0.000  0.001  0.017  0.018
   16  0.000  0.000  0.011  0.012
   17  0.000  0.000  0.000  0.000
   18  0.000  0.000  0.000  0.000
tot    0.002  0.012  0.971  0.986
 
band    35 # energy   -3.68488183 # occ.  2.00000000
 
ion      s      p      d    tot
    1  0.000  0.000  0.006  0.006
    2  0.000  0.000  0.016  0.016
    3  0.000  0.000  0.028  0.028
    4  0.000  0.000  0.005  0.005
    5  0.000  0.001  0.026  0.026
    6  0.000  0.002  0.048  0.050
    7  0.000  0.001  0.014  0.015
    8  0.000  0.001  0.025  0.026
    9  0.000  0.000  0.034  0.034
   10  0.000  0.000  0.064  0.064
   11  0.000  0.000  0.065  0.065
   12  0.000  0.001  0.099  0.100
   13  0.000  0.000  0.192  0.192
   14  0.000  0.000  0.042  0.042
   15  0.000  0.000  0.104  0.104
   16  0.000  0.000  0.197  0.198
   17  0.000  0.001  0.001  0.001
   18  0.000  0.012  0.000  0.012
tot    0.002  0.019  0.965  0.985
 
band    36 # energy   -3.68482857 # occ.  2.00000000
 
ion      s      p      d    tot
    1  0.000  0.000  0.012  0.012
    2  0.000  0.000  0.002  0.002
    3  0.000  0.000  0.028  0.028
    4  0.000  0.000  0.013  0.013
    5  0.000  0.001  0.018  0.019
    6  0.000  0.002  0.048  0.050
    7  0.000  0.000  0.029  0.030
    8  0.000  0.001  0.018  0.019
    9  0.000  0.000  0.075  0.075
   10  0.000  0.000  0.045  0.045
   11  0.000  0.000  0.043  0.044
   12  0.000  0.001  0.099  0.100
   13  0.000  0.000  0.095  0.095
   14  0.001  0.000  0.246  0.246
   15  0.000  0.000  0.104  0.104
   16  0.000  0.000  0.090  0.090
   17  0.000  0.001  0.001  0.001
   18  0.000  0.012  0.000  0.012
tot    0.002  0.019  0.965  0.985
 
band    37 # energy   -3.63402477 # occ.  2.00000000
 
ion      s      p      d    tot
    1  0.000  0.002  0.040  0.042
    2  0.000  0.002  0.040  0.042
    3  0.000  0.001  0.028  0.029
    4  0.000  0.002  0.040  0.042
    5  0.001  0.000  0.108  0.109
    6  0.001  0.001  0.218  0.221
    7  0.001  0.000  0.108  0.109
    8  0.001  0.000  0.108  0.109
    9  0.000  0.003  0.082  0.085
   10  0.000  0.003  0.082  0.085
   11  0.000  0.003  0.082  0.085
   12  0.001  0.004  0.006  0.011
   13  0.000  0.001  0.007  0.008
   14  0.000  0.001  0.007  0.008
   15  0.000  0.000  0.001  0.001
   16  0.000  0.001  0.007  0.008
   17  0.000  0.001  0.000  0.001
   18  0.000  0.000  0.000  0.000
tot    0.007  0.024  0.962  0.993
 
band    38 # energy   -3.59972261 # occ.  2.00000000
 
ion      s      p      d    tot
    1  0.000  0.000  0.022  0.023
    2  0.000  0.000  0.002  0.002
    3  0.000  0.000  0.018  0.018
    4  0.000  0.000  0.023  0.024
    5  0.000  0.001  0.119  0.121
    6  0.000  0.002  0.101  0.103
    7  0.000  0.002  0.059  0.061
    8  0.000  0.001  0.117  0.119
    9  0.000  0.003  0.040  0.043
   10  0.000  0.001  0.087  0.088
   11  0.000  0.001  0.089  0.090
   12  0.000  0.003  0.057  0.060
   13  0.001  0.000  0.091  0.092
   14  0.000  0.000  0.011  0.012
   15  0.000  0.000  0.028  0.029
   16  0.001  0.000  0.093  0.095
   17  0.000  0.000  0.000  0.001
   18  0.000  0.009  0.000  0.009
tot    0.004  0.025  0.958  0.987
 
band    39 # energy   -3.59965074 # occ.  2.00000000
 
ion      s      p      d    tot
    1  0.000  0.000  0.009  0.010
    2  0.000  0.001  0.030  0.030
    3  0.000  0.000  0.018  0.018
    4  0.000  0.000  0.009  0.009
    5  0.000  0.002  0.078  0.079
    6  0.000  0.002  0.101  0.103
    7  0.001  0.001  0.138  0.139
    8  0.000  0.002  0.079  0.081
    9  0.000  0.001  0.104  0.105
   10  0.000  0.002  0.057  0.059
   11  0.000  0.002  0.055  0.058
   12  0.000  0.003  0.057  0.060
   13  0.000  0.000  0.040  0.040
   14  0.002  0.000  0.119  0.121
   15  0.000  0.000  0.028  0.029
   16  0.000  0.000  0.037  0.038
   17  0.000  0.000  0.000  0.001
   18  0.000  0.009  0.000  0.009
tot    0.004  0.025  0.958  0.987
 
band    40 # energy   -3.54968704 # occ.  2.00000000
 
ion      s      p      d    tot
    1  0.000  0.000  0.017  0.018
    2  0.000  0.000  0.009  0.010
    3  0.000  0.000  0.015  0.015
    4  0.000  0.000  0.017  0.018
    5  0.000  0.001  0.166  0.168
    6  0.000  0.002  0.118  0.120
    7  0.000  0.002  0.160  0.162
    8  0.000  0.001  0.166  0.168
    9  0.000  0.005  0.027  0.032
   10  0.000  0.001  0.015  0.016
   11  0.000  0.001  0.014  0.016
   12  0.000  0.002  0.020  0.022
   13  0.001  0.000  0.076  0.077
   14  0.000  0.000  0.027  0.027
   15  0.000  0.000  0.044  0.044
   16  0.001  0.000  0.076  0.078
   17  0.000  0.000  0.000  0.000
   18  0.000  0.002  0.000  0.002
tot    0.004  0.019  0.969  0.991
 
band    41 # energy   -3.54956376 # occ.  2.00000000
 
ion      s      p      d    tot
    1  0.000  0.000  0.012  0.012
    2  0.000  0.000  0.020  0.020
    3  0.000  0.000  0.015  0.015
    4  0.000  0.000  0.012  0.012
    5  0.000  0.002  0.162  0.164
    6  0.000  0.002  0.119  0.120
    7  0.001  0.001  0.169  0.170
    8  0.000  0.002  0.162  0.164
    9  0.000  0.000  0.010  0.011
   10  0.000  0.003  0.023  0.026