<?xml version="1.0" encoding="ISO-8859-1"?>
<modeling>
 <generator>
  <i name="program" type="string">vasp </i>
  <i name="version" type="string">5.4.4.18Apr17-6-g9f103f2a35  </i>
  <i name="subversion" type="string">(build Aug 07 2018 15:16:41) complex            parallel </i>
  <i name="platform" type="string">LinuxIFC </i>
  <i name="date" type="string">2019 10 18 </i>
  <i name="time" type="string">01:18:28 </i>
 </generator>
 <incar>
  <i type="string" name="PREC">normal</i>
  <i type="int" name="IBRION">     2</i>
  <i name="EDIFFG">     -0.03000000</i>
  <i type="int" name="NSW">     0</i>
  <i type="int" name="ISIF">     0</i>
  <i type="int" name="ISYM">     0</i>
  <i name="ENCUT">    350.00000000</i>
  <v name="RWIGS">      1.50000000      0.80000000      0.80000000</v>
  <i type="string" name="LREAL"> Auto</i>
  <i type="logical" name="LWAVE"> F  </i>
  <i type="logical" name="LCHARG"> F  </i>
  <i type="int" name="LORBIT">     0</i>
  <v type="int" name="KPOINT_BSE">    -1     0     0     0</v>
  <i type="string" name="GGA"> RP</i>
 </incar>
 <structure name="primitive_cell" >
  <crystal>
   <varray name="basis" >
    <v>       5.19996363       0.00000000       0.00000000 </v>
    <v>       2.59998182       4.50330060       0.00000000 </v>
    <v>       0.00000000       0.00000000      26.36862879 </v>
   </varray>
   <i name="volume">    617.47416323 </i>
   <varray name="rec_basis" >
    <v>       0.19230904      -0.11102967       0.00000000 </v>
    <v>       0.00000000       0.22205935       0.00000000 </v>
    <v>       0.00000000       0.00000000       0.03792385 </v>
   </varray>
  </crystal>
  <varray name="positions" >
   <v>       0.00000000       0.00000000       0.37923853 </v>
   <v>       0.16666667       0.16666667       0.45974618 </v>
   <v>       0.00000000      -0.50000000       0.37923853 </v>
   <v>      -0.50000000      -0.50000000       0.37923853 </v>
   <v>      -0.50000000       0.00000000       0.37923853 </v>
   <v>       0.16666667      -0.33333333       0.45974618 </v>
   <v>      -0.33333333       0.16666667       0.45974618 </v>
   <v>      -0.33333333      -0.33333333       0.45974618 </v>
   <v>      -0.16722196       0.33277803      -0.46145299 </v>
   <v>      -0.16722256      -0.16555872      -0.46145261 </v>
   <v>       0.33333220      -0.16666781      -0.45795773 </v>
   <v>       0.33444131       0.33277743      -0.46145261 </v>
   <v>       0.00017327      -0.00008220      -0.37850403 </v>
   <v>      -0.00000463       0.49999532      -0.38347899 </v>
   <v>       0.49991781      -0.49982677      -0.37850402 </v>
   <v>       0.49991748      -0.00008250      -0.37850140 </v>
   <v>      -0.33332950       0.16667048      -0.32439333 </v>
   <v>      -0.33330498       0.16669499      -0.27934284 </v>
  </varray>
 </structure>
 <varray name="primitive_index" >
  <v type="int" >        1 </v>
  <v type="int" >        5 </v>
  <v type="int" >        3 </v>
  <v type="int" >        4 </v>
  <v type="int" >        2 </v>
  <v type="int" >        7 </v>
  <v type="int" >        6 </v>
  <v type="int" >        8 </v>
  <v type="int" >        9 </v>
  <v type="int" >       11 </v>
  <v type="int" >       12 </v>
  <v type="int" >       10 </v>
  <v type="int" >       13 </v>
  <v type="int" >       15 </v>
  <v type="int" >       16 </v>
  <v type="int" >       14 </v>
  <v type="int" >       17 </v>
  <v type="int" >       18 </v>
 </varray>
 <kpoints>
  <generation param="Monkhorst-Pack">
   <v type="int" name="divisions">       5        5        1 </v>
   <v name="usershift">      0.00000000       0.00000000       0.00000000 </v>
   <v name="genvec1">      0.20000000       0.00000000       0.00000000 </v>
   <v name="genvec2">      0.00000000       0.20000000       0.00000000 </v>
   <v name="genvec3">      0.00000000       0.00000000       1.00000000 </v>
   <v name="shift">      0.00000000       0.00000000       0.00000000 </v>
  </generation>
  <varray name="kpointlist" >
   <v>       0.00000000       0.00000000       0.00000000 </v>
   <v>       0.20000000      -0.00000000       0.00000000 </v>
   <v>       0.40000000      -0.00000000       0.00000000 </v>
   <v>       0.00000000       0.20000000       0.00000000 </v>
   <v>       0.20000000       0.20000000       0.00000000 </v>
   <v>       0.40000000       0.20000000       0.00000000 </v>
   <v>      -0.40000000       0.20000000       0.00000000 </v>
   <v>      -0.20000000       0.20000000       0.00000000 </v>
   <v>       0.00000000       0.40000000       0.00000000 </v>
   <v>       0.20000000       0.40000000       0.00000000 </v>
   <v>       0.40000000       0.40000000       0.00000000 </v>
   <v>      -0.40000000       0.40000000       0.00000000 </v>
   <v>      -0.20000000       0.40000000       0.00000000 </v>
  </varray>
  <varray name="weights" >
   <v>       0.04000000 </v>
   <v>       0.08000000 </v>
   <v>       0.08000000 </v>
   <v>       0.08000000 </v>
   <v>       0.08000000 </v>
   <v>       0.08000000 </v>
   <v>       0.08000000 </v>
   <v>       0.08000000 </v>
   <v>       0.08000000 </v>
   <v>       0.08000000 </v>
   <v>       0.08000000 </v>
   <v>       0.08000000 </v>
   <v>       0.08000000 </v>
  </varray>
 </kpoints>
 <parameters>
  <separator name="general" >
   <i type="string" name="SYSTEM">unknown system</i>
   <i type="logical" name="LCOMPAT"> F  </i>
  </separator>
  <separator name="electronic" >
   <i type="string" name="PREC">normal</i>
   <i name="ENMAX">    350.00000000</i>
   <i name="ENAUG">    644.87300000</i>
   <i name="EDIFF">      0.00010000</i>
   <i type="int" name="IALGO">    38</i>
   <i type="int" name="IWAVPR">    10</i>
   <i type="int" name="NBANDS">   112</i>
   <i name="NELECT">    186.00000000</i>
   <i type="int" name="TURBO">     0</i>
   <i type="int" name="IRESTART">     0</i>
   <i type="int" name="NREBOOT">     0</i>
   <i type="int" name="NMIN">     0</i>
   <i name="EREF">      0.00000000</i>
   <separator name="electronic smearing" >
    <i type="int" name="ISMEAR">     1</i>
    <i name="SIGMA">      0.20000000</i>
    <i name="KSPACING">      0.50000000</i>
    <i type="logical" name="KGAMMA"> T  </i>
   </separator>
   <separator name="electronic projectors" >
    <i type="logical" name="LREAL"> T  </i>
    <v name="ROPT">     -0.00050000     -0.00050000     -0.00050000</v>
    <i type="int" name="LMAXPAW">  -100</i>
    <i type="int" name="LMAXMIX">     2</i>
    <i type="logical" name="NLSPLINE"> F  </i>
   </separator>
   <separator name="electronic startup" >
    <i type="int" name="ISTART">     0</i>
    <i type="int" name="ICHARG">     2</i>
    <i type="int" name="INIWAV">     1</i>
   </separator>
   <separator name="electronic spin" >
    <i type="int" name="ISPIN">     1</i>
    <i type="logical" name="LNONCOLLINEAR"> F  </i>
    <v name="MAGMOM">      1.00000000      1.00000000      1.00000000      1.00000000      1.00000000      1.00000000      1.00000000      1.00000000      1.00000000      1.00000000      1.00000000      1.00000000      1.00000000      1.00000000      1.00000000      1.00000000      1.00000000      1.00000000</v>
    <i name="NUPDOWN">     -1.00000000</i>
    <i type="logical" name="LSORBIT"> F  </i>
    <v name="SAXIS">      0.00000000      0.00000000      1.00000000</v>
    <i type="logical" name="LSPIRAL"> F  </i>
    <v name="QSPIRAL">      0.00000000      0.00000000      0.00000000</v>
    <i type="logical" name="LZEROZ"> F  </i>
   </separator>
   <separator name="electronic exchange-correlation" >
    <i type="logical" name="LASPH"> F  </i>
    <i type="logical" name="LMETAGGA"> F  </i>
   </separator>
   <separator name="electronic convergence" >
    <i type="int" name="NELM">    60</i>
    <i type="int" name="NELMDL">    -5</i>
    <i type="int" name="NELMIN">     2</i>
    <i name="ENINI">    350.00000000</i>
    <separator name="electronic convergence detail" >
     <i type="logical" name="LDIAG"> T  </i>
     <i type="logical" name="LSUBROT"> F  </i>
     <i name="WEIMIN">      0.00000000</i>
     <i name="EBREAK">      0.00000022</i>
     <i name="DEPER">      0.30000000</i>
     <i type="int" name="NRMM">     4</i>
     <i name="TIME">      0.40000000</i>
    </separator>
   </separator>
   <separator name="electronic mixer" >
    <i name="AMIX">      0.40000000</i>
    <i name="BMIX">      1.00000000</i>
    <i name="AMIN">      0.10000000</i>
    <i name="AMIX_MAG">      1.60000000</i>
    <i name="BMIX_MAG">      1.00000000</i>
    <separator name="electronic mixer details" >
     <i type="int" name="IMIX">     4</i>
     <i type="logical" name="MIXFIRST"> F  </i>
     <i type="int" name="MAXMIX">   -45</i>
     <i name="WC">    100.00000000</i>
     <i type="int" name="INIMIX">     1</i>
     <i type="int" name="MIXPRE">     1</i>
     <i type="int" name="MREMOVE">     5</i>
    </separator>
   </separator>
   <separator name="electronic dipolcorrection" >
    <i type="logical" name="LDIPOL"> F  </i>
    <i type="logical" name="LMONO"> F  </i>
    <i type="int" name="IDIPOL">     0</i>
    <i name="EPSILON">      1.00000000</i>
    <v name="DIPOL">   -100.00000000   -100.00000000   -100.00000000</v>
    <i name="EFIELD">      0.00000000</i>
   </separator>
  </separator>
  <separator name="grids" >
   <i type="int" name="NGX">    24</i>
   <i type="int" name="NGY">    24</i>
   <i type="int" name="NGZ">   126</i>
   <i type="int" name="NGXF">    48</i>
   <i type="int" name="NGYF">    48</i>
   <i type="int" name="NGZF">   252</i>
   <i type="logical" name="ADDGRID"> F  </i>
  </separator>
  <separator name="ionic" >
   <i type="int" name="NSW">     0</i>
   <i type="int" name="IBRION">    -1</i>
   <i type="int" name="MDALGO">     0</i>
   <i type="int" name="ISIF">     0</i>
   <i name="PSTRESS">      0.00000000</i>
   <i name="EDIFFG">     -0.03000000</i>
   <i type="int" name="NFREE">     1</i>
   <i name="POTIM">      0.50000000</i>
   <i name="SMASS">     -3.00000000</i>
   <i name="SCALEE">      1.00000000</i>
  </separator>
  <separator name="ionic md" >
   <i name="TEBEG">      0.00010000</i>
   <i name="TEEND">      0.00010000</i>
   <i type="int" name="NBLOCK">     1</i>
   <i type="int" name="KBLOCK">     1</i>
   <i type="int" name="NPACO">   256</i>
   <i name="APACO">     16.00000000</i>
  </separator>
  <separator name="symmetry" >
   <i type="int" name="ISYM">     0</i>
   <i name="SYMPREC">      0.00001000</i>
  </separator>
  <separator name="dos" >
   <i type="int" name="LORBIT">     0</i>
   <v name="RWIGS">      1.50000000      0.80000000      0.80000000</v>
   <i type="int" name="NEDOS">   301</i>
   <i name="EMIN">     10.00000000</i>
   <i name="EMAX">    -10.00000000</i>
   <i name="EFERMI">      0.00000000</i>
  </separator>
  <separator name="writing" >
   <i type="int" name="NWRITE">     2</i>
   <i type="logical" name="LWAVE"> F  </i>
   <i type="logical" name="LDOWNSAMPLE"> F  </i>
   <i type="logical" name="LCHARG"> F  </i>
   <i type="logical" name="LPARD"> F  </i>
   <i type="logical" name="LVTOT"> F  </i>
   <i type="logical" name="LVHAR"> F  </i>
   <i type="logical" name="LELF"> F  </i>
   <i type="logical" name="LOPTICS"> F  </i>
   <v name="STM">      0.00000000      0.00000000      0.00000000      0.00000000      0.00000000      0.00000000      0.00000000</v>
  </separator>
  <separator name="performance" >
   <i type="int" name="NPAR">     4</i>
   <i type="int" name="NSIM">     4</i>
   <i type="int" name="NBLK">    -1</i>
   <i type="logical" name="LPLANE"> T  </i>
   <i type="logical" name="LSCALAPACK"> T  </i>
   <i type="logical" name="LSCAAWARE"> F  </i>
   <i type="logical" name="LSCALU"> F  </i>
   <i type="logical" name="LASYNC"> F  </i>
   <i type="logical" name="LORBITALREAL"> F  </i>
  </separator>
  <separator name="miscellaneous" >
   <i type="int" name="IDIOT">     3</i>
   <i type="int" name="ISPECIAL">     0</i>
   <i type="logical" name="LMUSIC"> F  </i>
   <v name="POMASS">     63.54600000     12.01100000     16.00000000</v>
   <v name="DARWINR">      0.00000000      0.00000000      0.00000000</v>
   <v name="DARWINV">      1.00000000      1.00000000      1.00000000</v>
   <i type="logical" name="LCORR"> T  </i>
  </separator>
  <i type="logical" name="GGA_COMPAT"> T  </i>
  <i type="logical" name="LBERRY"> F  </i>
  <i type="int" name="ICORELEVEL">     0</i>
  <i type="logical" name="LDAU"> F  </i>
  <i type="int" name="I_CONSTRAINED_M">     0</i>
  <separator name="electronic exchange-correlation" >
   <i type="string" name="GGA">RP</i>
   <i type="int" name="VOSKOWN">     0</i>
   <i type="logical" name="LHFCALC"> F  </i>
   <i type="string" name="PRECFOCK"></i>
   <i type="logical" name="LSYMGRAD"> F  </i>
   <i type="logical" name="LHFONE"> F  </i>
   <i type="logical" name="LRHFCALC"> F  </i>
   <i type="logical" name="LTHOMAS"> F  </i>
   <i type="logical" name="LMODELHF"> F  </i>
   <i name="ENCUT4O">     -1.00000000</i>
   <i type="int" name="EXXOEP">     0</i>
   <i type="int" name="FOURORBIT">     0</i>
   <i name="AEXX">      0.00000000</i>
   <i name="HFALPHA">      0.00000000</i>
   <i name="MCALPHA">      0.00000000</i>
   <i name="ALDAX">      1.00000000</i>
   <i name="AGGAX">      1.00000000</i>
   <i name="ALDAC">      1.00000000</i>
   <i name="AGGAC">      1.00000000</i>
   <i type="int" name="NKREDX">     1</i>
   <i type="int" name="NKREDY">     1</i>
   <i type="int" name="NKREDZ">     1</i>
   <i type="logical" name="SHIFTRED"> F  </i>
   <i type="logical" name="ODDONLY"> F  </i>
   <i type="logical" name="EVENONLY"> F  </i>
   <i type="int" name="LMAXFOCK">     0</i>
   <i type="int" name="NMAXFOCKAE">     0</i>
   <i type="logical" name="LFOCKAEDFT"> F  </i>
   <i name="HFSCREEN">      0.00000000</i>
   <i name="HFSCREENC">      0.00000000</i>
   <i type="int" name="NBANDSGWLOW">     0</i>
  </separator>
  <separator name="vdW DFT" >
   <i type="logical" name="LUSE_VDW"> F  </i>
   <i name="Zab_VDW">     -0.84910000</i>
   <i name="PARAM1">      0.12340000</i>
   <i name="PARAM2">      1.00000000</i>
   <i name="PARAM3">      0.00000000</i>
  </separator>
  <separator name="model GW" >
   <i type="int" name="MODEL_GW">     0</i>
   <i name="MODEL_EPS0">     20.58247211</i>
   <i name="MODEL_ALPHA">      1.00000000</i>
  </separator>
  <separator name="linear response parameters" >
   <i type="logical" name="LEPSILON"> F  </i>
   <i type="logical" name="LRPA"> F  </i>
   <i type="logical" name="LNABLA"> F  </i>
   <i type="logical" name="LVEL"> F  </i>
   <i type="int" name="KINTER">     0</i>
   <i name="CSHIFT">      0.10000000</i>
   <i name="OMEGAMAX">     -1.00000000</i>
   <i name="DEG_THRESHOLD">      0.00200000</i>
   <i name="RTIME">     -0.10000000</i>
   <i name="WPLASMAI">      0.00000000</i>
   <v name="DFIELD">      0.00000000      0.00000000      0.00000000</v>
   <v name="WPLASMA">      0.00000000      0.00000000      0.00000000      0.00000000      0.00000000      0.00000000      0.00000000      0.00000000      0.00000000</v>
  </separator>
  <separator name="orbital magnetization" >
   <i type="logical" name="NUCIND"> F  </i>
   <v name="MAGPOS">      0.00000000      0.00000000      0.00000000</v>
   <i type="logical" name="LNICSALL"> T  </i>
   <i type="logical" name="ORBITALMAG"> F  </i>
   <i type="logical" name="LMAGBLOCH"> F  </i>
   <i type="logical" name="LCHIMAG"> F  </i>
   <i type="logical" name="LGAUGE"> T  </i>
   <i type="int" name="MAGATOM">     0</i>
   <v name="MAGDIPOL">      0.00000000      0.00000000      0.00000000</v>
   <v name="AVECCONST">      0.00000000      0.00000000      0.00000000</v>
  </separator>
  <separator name="response functions" >
   <i type="logical" name="LADDER"> F  </i>
   <i type="logical" name="LRPAFORCE"> F  </i>
   <i type="logical" name="LFXC"> F  </i>
   <i type="logical" name="LHARTREE"> T  </i>
   <i type="int" name="IBSE">     0</i>
   <v type="int" name="KPOINT">    -1     0     0     0</v>
   <i type="logical" name="LTCTE"> F  </i>
   <i type="logical" name="LTETE"> F  </i>
   <i type="logical" name="LTRIPLET"> F  </i>
   <i type="logical" name="LFXCEPS"> F  </i>
   <i type="logical" name="LFXHEG"> F  </i>
   <i type="int" name="NATURALO">     2</i>
   <i type="logical" name="L2ORDER"> F  </i>
   <i type="logical" name="LMP2LT"> F  </i>
   <i type="logical" name="LUSEW"> F  </i>
   <i name="ENCUTGW">     -2.00000000</i>
   <i name="ENCUTGWSOFT">     -2.00000000</i>
   <i name="ENCUTLF">     -1.00000000</i>
   <i type="int" name="LMAXMP2">    -1</i>
   <i name="SCISSOR">      0.00000000</i>
   <i type="int" name="NOMEGA">     0</i>
   <i type="int" name="NOMEGAR">     0</i>
   <i type="int" name="NBANDSGW">    -1</i>
   <i type="int" name="NBANDSO">    -1</i>
   <i type="int" name="NBANDSV">    -1</i>
   <i type="int" name="NELM">     1</i>
   <i type="int" name="NELMHF">     1</i>
   <i type="int" name="DIM">     3</i>
   <i type="int" name="ANTIRES">     0</i>
   <i name="OMEGAMAX">    -30.00000000</i>
   <i name="OMEGAMIN">    -30.00000000</i>
   <i name="OMEGATL">   -200.00000000</i>
   <i type="int" name="OMEGAGRID">   140</i>
   <i name="CSHIFT">     -0.10000000</i>
   <i type="logical" name="SELFENERGY"> F  </i>
   <i type="logical" name="LSPECTRAL"> F  </i>
   <i type="logical" name="LSPECTRALGW"> F  </i>
   <i type="logical" name="LSINGLES"> F  </i>
   <i type="logical" name="LFERMIGW"> F  </i>
   <i type="logical" name="ODDONLYGW"> F  </i>
   <i type="logical" name="EVENONLYGW"> F  </i>
   <i type="int" name="NKREDLFX">     1</i>
   <i type="int" name="NKREDLFY">     1</i>
   <i type="int" name="NKREDLFZ">     1</i>
   <i type="int" name="MAXMEM">  2800</i>
   <i type="int" name="TELESCOPE">     0</i>
   <i type="int" name="TAUPAR">     1</i>
   <i type="int" name="OMEGAPAR">    -1</i>
   <i name="LAMBDA">      1.00000000</i>
  </separator>
  <separator name="External order field" >
   <i name="OFIELD_KAPPA">      0.00000000</i>
   <v name="OFIELD_K">      0.00000000      0.00000000      0.00000000</v>
   <i name="OFIELD_Q6_NEAR">      0.00000000</i>
   <i name="OFIELD_Q6_FAR">      0.00000000</i>
   <i name="OFIELD_A">      0.00000000</i>
  </separator>
 </parameters>
 <atominfo>
  <atoms>      18 </atoms>
  <types>       3 </types>
  <array name="atoms" >
   <dimension dim="1">ion</dimension>
   <field type="string">element</field>
   <field type="int">atomtype</field>
   <set>
    <rc><c>Cu</c><c>   1</c></rc>
    <rc><c>Cu</c><c>   1</c></rc>
    <rc><c>Cu</c><c>   1</c></rc>
    <rc><c>Cu</c><c>   1</c></rc>
    <rc><c>Cu</c><c>   1</c></rc>
    <rc><c>Cu</c><c>   1</c></rc>
    <rc><c>Cu</c><c>   1</c></rc>
    <rc><c>Cu</c><c>   1</c></rc>
    <rc><c>Cu</c><c>   1</c></rc>
    <rc><c>Cu</c><c>   1</c></rc>
    <rc><c>Cu</c><c>   1</c></rc>
    <rc><c>Cu</c><c>   1</c></rc>
    <rc><c>Cu</c><c>   1</c></rc>
    <rc><c>Cu</c><c>   1</c></rc>
    <rc><c>Cu</c><c>   1</c></rc>
    <rc><c>Cu</c><c>   1</c></rc>
    <rc><c>C </c><c>   2</c></rc>
    <rc><c>O </c><c>   3</c></rc>
   </set>
  </array>
  <array name="atomtypes" >
   <dimension dim="1">type</dimension>
   <field type="int">atomspertype</field>
   <field type="string">element</field>
   <field>mass</field>
   <field>valence</field>
   <field type="string">pseudopotential</field>
   <set>
    <rc><c>  16</c><c>Cu</c><c>     63.54600000</c><c>     11.00000000</c><c>  PAW_PBE Cu 22Jun2005                  </c></rc>
    <rc><c>   1</c><c>C </c><c>     12.01100000</c><c>      4.00000000</c><c>  PAW_PBE C 08Apr2002                   </c></rc>
    <rc><c>   1</c><c>O </c><c>     16.00000000</c><c>      6.00000000</c><c>  PAW_PBE O 08Apr2002                   </c></rc>
   </set>
  </array>
 </atominfo>
 <structure name="initialpos" >
  <crystal>
   <varray name="basis" >
    <v>       5.19996363       0.00000000       0.00000000 </v>
    <v>       2.59998182       4.50330060       0.00000000 </v>
    <v>       0.00000000       0.00000000      26.36862879 </v>
   </varray>
   <i name="volume">    617.47416323 </i>
   <varray name="rec_basis" >
    <v>       0.19230904      -0.11102967       0.00000000 </v>
    <v>       0.00000000       0.22205935       0.00000000 </v>
    <v>       0.00000000       0.00000000       0.03792385 </v>
   </varray>
  </crystal>
  <varray name="positions" >
   <v>       0.00000000       0.00000000       0.37923853 </v>
   <v>       0.50000000       0.00000000       0.37923853 </v>
   <v>       0.00000000       0.50000000       0.37923853 </v>
   <v>       0.50000000       0.50000000       0.37923853 </v>
   <v>       0.16666667       0.16666667       0.45974618 </v>
   <v>       0.66666667       0.16666667       0.45974618 </v>
   <v>       0.16666667       0.66666667       0.45974618 </v>
   <v>       0.66666667       0.66666667       0.45974618 </v>
   <v>       0.83277804       0.33277803       0.53854701 </v>
   <v>       0.33444131       0.33277743       0.53854739 </v>
   <v>       0.83277744       0.83444128       0.53854739 </v>
   <v>       0.33333220       0.83333219       0.54204227 </v>
   <v>       0.00017327       0.99991780       0.62149597 </v>
   <v>       0.49991748       0.99991750       0.62149860 </v>
   <v>       0.99999537       0.49999532       0.61652101 </v>
   <v>       0.49991781       0.50017323       0.62149598 </v>
   <v>       0.66667050       0.16667048       0.67560667 </v>
   <v>       0.66669502       0.16669499       0.72065716 </v>
  </varray>
  <varray name="selective"  type="logical" >
   <v type="logical" >  F  F  F </v>
   <v type="logical" >  F  F  F </v>
   <v type="logical" >  F  F  F </v>
   <v type="logical" >  F  F  F </v>
   <v type="logical" >  F  F  F </v>
   <v type="logical" >  F  F  F </v>
   <v type="logical" >  F  F  F </v>
   <v type="logical" >  F  F  F </v>
   <v type="logical" >  T  T  T </v>
   <v type="logical" >  T  T  T </v>
   <v type="logical" >  T  T  T </v>
   <v type="logical" >  T  T  T </v>
   <v type="logical" >  T  T  T </v>
   <v type="logical" >  T  T  T </v>
   <v type="logical" >  T  T  T </v>
   <v type="logical" >  T  T  T </v>
   <v type="logical" >  T  T  T </v>
   <v type="logical" >  T  T  T </v>
  </varray>
  <nose>
   <v>      -3.00000000       0.00000000       0.00010000       0.00010000 </v>
  </nose>
 </structure>
 <calculation>
  <scstep>
   <time name="dav">    4.39    4.39</time>
   <time name="total">    4.46    4.47</time>
   <energy>
    <i name="alphaZ">    333.59272159 </i>
    <i name="ewald"> 110362.06199221 </i>
    <i name="hartreedc">-132126.25582705 </i>
    <i name="XCdc">    758.17009339 </i>
    <i name="pawpsdc">  20119.38880325 </i>
    <i name="pawaedc"> -21798.78739505 </i>
    <i name="eentropy">     -0.00385737 </i>
    <i name="bandstr">   1159.64445867 </i>
    <i name="atom">  22817.67997243 </i>
    <i name="e_fr_energy">   1625.49096207 </i>
    <i name="e_wo_entrp">   1625.49481944 </i>
    <i name="e_0_energy">   1625.49224786 </i>
   </energy>
  </scstep>
  <scstep>
   <time name="dav">    4.34    4.34</time>
   <time name="total">    4.34    4.34</time>
   <energy>
    <i name="e_fr_energy">    155.75263812 </i>
    <i name="e_wo_entrp">    155.74436000 </i>
    <i name="e_0_energy">    155.74987875 </i>
   </energy>
  </scstep>
  <scstep>
   <time name="dav">    5.44    5.44</time>
   <time name="total">    5.44    5.44</time>
   <energy>
    <i name="e_fr_energy">    -51.62931674 </i>
    <i name="e_wo_entrp">    -51.63247263 </i>
    <i name="e_0_energy">    -51.63036870 </i>
   </energy>
  </scstep>
  <scstep>
   <time name="dav">    5.92    5.92</time>
   <time name="total">    5.93    5.93</time>
   <energy>
    <i name="e_fr_energy">    -76.73422068 </i>
    <i name="e_wo_entrp">    -76.73893035 </i>
    <i name="e_0_energy">    -76.73579057 </i>
   </energy>
  </scstep>
  <scstep>
   <time name="dav">    6.11    6.11</time>
   <time name="total">    6.33    6.33</time>
   <energy>
    <i name="e_fr_energy">    -78.02895538 </i>
    <i name="e_wo_entrp">    -78.03312768 </i>
    <i name="e_0_energy">    -78.03034615 </i>
   </energy>
  </scstep>
  <scstep>
   <time name="dav">    5.00    5.00</time>
   <time name="total">    5.26    5.26</time>
   <energy>
    <i name="e_fr_energy">    -75.90670382 </i>
    <i name="e_wo_entrp">    -75.90120948 </i>
    <i name="e_0_energy">    -75.90487237 </i>
   </energy>
  </scstep>
  <scstep>
   <time name="dav">    5.25    5.25</time>
   <time name="total">    5.52    5.52</time>
   <energy>
    <i name="e_fr_energy">    -64.04606721 </i>
    <i name="e_wo_entrp">    -64.05114731 </i>
    <i name="e_0_energy">    -64.04776058 </i>
   </energy>
  </scstep>
  <scstep>
   <time name="dav">    5.89    5.89</time>
   <time name="total">    6.15    6.16</time>
   <energy>
    <i name="e_fr_energy">    -64.13918102 </i>
    <i name="e_wo_entrp">    -64.17032182 </i>
    <i name="e_0_energy">    -64.14956129 </i>
   </energy>
  </scstep>
  <scstep>
   <time name="dav">    6.36    6.36</time>
   <time name="total">    6.62    6.62</time>
   <energy>
    <i name="e_fr_energy">    -63.81614099 </i>
    <i name="e_wo_entrp">    -63.82899519 </i>
    <i name="e_0_energy">    -63.82042573 </i>
   </energy>
  </scstep>
  <scstep>
   <time name="dav">    5.50    5.50</time>
   <time name="total">    5.74    5.75</time>
   <energy>
    <i name="e_fr_energy">    -63.87508642 </i>
    <i name="e_wo_entrp">    -63.89676075 </i>
    <i name="e_0_energy">    -63.88231120 </i>
   </energy>
  </scstep>
  <scstep>
   <time name="dav">    5.07    5.07</time>
   <time name="total">    5.33    5.33</time>
   <energy>
    <i name="e_fr_energy">    -63.87801716 </i>
    <i name="e_wo_entrp">    -63.89526062 </i>
    <i name="e_0_energy">    -63.88376498 </i>
   </energy>
  </scstep>
  <scstep>
   <time name="dav">    5.57    5.57</time>
   <time name="total">    5.83    5.83</time>
   <energy>
    <i name="e_fr_energy">    -63.84910443 </i>
    <i name="e_wo_entrp">    -63.86798410 </i>
    <i name="e_0_energy">    -63.85539765 </i>
   </energy>
  </scstep>
  <scstep>
   <time name="dav">    5.62    5.62</time>
   <time name="total">    5.88    5.88</time>
   <energy>
    <i name="e_fr_energy">    -63.84013255 </i>
    <i name="e_wo_entrp">    -63.85809441 </i>
    <i name="e_0_energy">    -63.84611984 </i>
   </energy>
  </scstep>
  <scstep>
   <time name="dav">    5.45    5.45</time>
   <time name="total">    5.71    5.71</time>
   <energy>
    <i name="e_fr_energy">    -63.84052890 </i>
    <i name="e_wo_entrp">    -63.85921997 </i>
    <i name="e_0_energy">    -63.84675926 </i>
   </energy>
  </scstep>
  <scstep>
   <time name="dav">    5.44    5.44</time>
   <time name="total">    5.70    5.70</time>
   <energy>
    <i name="e_fr_energy">    -63.84026160 </i>
    <i name="e_wo_entrp">    -63.85827292 </i>
    <i name="e_0_energy">    -63.84626538 </i>
   </energy>
  </scstep>
  <scstep>
   <time name="dav">    5.42    5.42</time>
   <time name="total">    5.68    5.68</time>
   <energy>
    <i name="e_fr_energy">    -63.83848141 </i>
    <i name="e_wo_entrp">    -63.85665798 </i>
    <i name="e_0_energy">    -63.84454026 </i>
   </energy>
  </scstep>
  <scstep>
   <time name="dav">    6.08    6.08</time>
   <time name="total">    6.34    6.34</time>
   <energy>
    <i name="e_fr_energy">    -63.83821141 </i>
    <i name="e_wo_entrp">    -63.85656865 </i>
    <i name="e_0_energy">    -63.84433049 </i>
   </energy>
  </scstep>
  <scstep>
   <time name="dav">    4.97    4.97</time>
   <time name="total">    5.01    5.01</time>
   <energy>
    <i name="alphaZ">    333.59272159 </i>
    <i name="ewald"> 110362.06199221 </i>
    <i name="hartreedc">-131870.79672373 </i>
    <i name="XCdc">    744.10707520 </i>
    <i name="pawpsdc">  21550.40106509 </i>
    <i name="pawaedc"> -23261.02403825 </i>
    <i name="eentropy">      0.01849302 </i>
    <i name="bandstr">   -739.87876562 </i>
    <i name="atom">  22817.67997243 </i>
    <i name="e_fr_energy">    -63.83820806 </i>
    <i name="e_wo_entrp">    -63.85670109 </i>
    <i name="e_0_energy">    -63.84437240 </i>
   </energy>
  </scstep>
  <structure>
   <crystal>
    <varray name="basis" >
     <v>       5.19996363       0.00000000       0.00000000 </v>
     <v>       2.59998182       4.50330060       0.00000000 </v>
     <v>       0.00000000       0.00000000      26.36862879 </v>
    </varray>
    <i name="volume">    617.47416323 </i>
    <varray name="rec_basis" >
     <v>       0.19230904      -0.11102967       0.00000000 </v>
     <v>       0.00000000       0.22205935       0.00000000 </v>
     <v>       0.00000000       0.00000000       0.03792385 </v>
    </varray>
   </crystal>
   <varray name="positions" >
    <v>       0.00000000       0.00000000       0.37923853 </v>
    <v>       0.50000000       0.00000000       0.37923853 </v>
    <v>       0.00000000       0.50000000       0.37923853 </v>
    <v>       0.50000000       0.50000000       0.37923853 </v>
    <v>       0.16666667       0.16666667       0.45974618 </v>
    <v>       0.66666667       0.16666667       0.45974618 </v>
    <v>       0.16666667       0.66666667       0.45974618 </v>
    <v>       0.66666667       0.66666667       0.45974618 </v>
    <v>       0.83277804       0.33277803       0.53854701 </v>
    <v>       0.33444131       0.33277743       0.53854739 </v>
    <v>       0.83277744       0.83444128       0.53854739 </v>
    <v>       0.33333220       0.83333219       0.54204227 </v>
    <v>       0.00017327       0.99991780       0.62149597 </v>
    <v>       0.49991748       0.99991750       0.62149860 </v>
    <v>       0.99999537       0.49999532       0.61652101 </v>
    <v>       0.49991781       0.50017323       0.62149598 </v>
    <v>       0.66667050       0.16667048       0.67560667 </v>
    <v>       0.66669502       0.16669499       0.72065716 </v>
   </varray>
  </structure>
  <varray name="forces" >
   <v>      -0.01460970       0.00839205       0.04495779 </v>
   <v>       0.01455134       0.00839268       0.04473830 </v>
   <v>      -0.00000543      -0.00001234       0.03606656 </v>
   <v>      -0.00002922      -0.01685207       0.04495176 </v>
   <v>       0.00000167      -0.06763841      -0.01799751 </v>
   <v>      -0.00001497      -0.00000574      -0.04780290 </v>
   <v>       0.05855151       0.03380099      -0.01842531 </v>
   <v>      -0.05858301       0.03381797      -0.01799388 </v>
   <v>      -0.00039629      -0.00021655       0.00884096 </v>
   <v>       0.00031365      -0.00027482       0.00880740 </v>
   <v>      -0.00008918       0.00040660       0.00881472 </v>
   <v>       0.00011013       0.00004594      -0.01352425 </v>
   <v>       0.00005948      -0.00014354      -0.00444681 </v>
   <v>      -0.00008177      -0.00005776      -0.00409644 </v>
   <v>       0.00013638       0.00008071      -0.02546088 </v>
   <v>      -0.00010127       0.00017165      -0.00444025 </v>
   <v>       0.00007720       0.00003435       0.02878116 </v>
   <v>       0.00010948       0.00005830      -0.07177040 </v>
  </varray>
  <energy>
   <i name="e_fr_energy">    -63.83820806 </i>
   <i name="e_wo_entrp">    -63.84437240 </i>
   <i name="e_0_energy">      0.01849302 </i>
  </energy>
  <time name="totalsc">  102.73  102.76</time>
  <eigenvalues>
   <array>
    <dimension dim="1">band</dimension>
    <dimension dim="2">kpoint</dimension>
    <dimension dim="3">spin</dimension>
    <field>eigene</field>
    <field>occ</field>
    <set>
     <set comment="spin 1">
      <set comment="kpoint 1">
       <r>  -24.2349    1.0000 </r>
       <r>  -11.1214    1.0000 </r>
       <r>   -9.2556    1.0000 </r>
       <r>   -8.3366    1.0000 </r>
       <r>   -7.4988    1.0000 </r>
       <r>   -7.3884    1.0000 </r>
       <r>   -7.3878    1.0000 </r>
       <r>   -6.1479    1.0000 </r>
       <r>   -5.5545    1.0000 </r>
       <r>   -5.3382    1.0000 </r>
       <r>   -5.3382    1.0000 </r>
       <r>   -5.2863    1.0000 </r>
       <r>   -5.2137    1.0000 </r>
       <r>   -5.2070    1.0000 </r>
       <r>   -5.2070    1.0000 </r>
       <r>   -4.9572    1.0000 </r>
       <r>   -4.9572    1.0000 </r>
       <r>   -4.8598    1.0000 </r>
       <r>   -4.8149    1.0000 </r>
       <r>   -4.8148    1.0000 </r>
       <r>   -4.8132    1.0000 </r>
       <r>   -4.7738    1.0000 </r>
       <r>   -4.7738    1.0000 </r>
       <r>   -4.6937    1.0000 </r>
       <r>   -4.4497    1.0000 </r>
       <r>   -4.4497    1.0000 </r>
       <r>   -4.3406    1.0000 </r>
       <r>   -3.9900    1.0000 </r>
       <r>   -3.9900    1.0000 </r>
       <r>   -3.8814    1.0000 </r>
       <r>   -3.8301    1.0000 </r>
       <r>   -3.7345    1.0000 </r>
       <r>   -3.7344    1.0000 </r>
       <r>   -3.6909    1.0000 </r>
       <r>   -3.6849    1.0000 </r>
       <r>   -3.6848    1.0000 </r>
       <r>   -3.6340    1.0000 </r>
       <r>   -3.5997    1.0000 </r>
       <r>   -3.5997    1.0000 </r>
       <r>   -3.5497    1.0000 </r>
       <r>   -3.5496    1.0000 </r>
       <r>   -3.5423    1.0000 </r>
       <r>   -3.5236    1.0000 </r>
       <r>   -3.5236    1.0000 </r>
       <r>   -3.4750    1.0000 </r>
       <r>   -3.4749    1.0000 </r>
       <r>   -3.4350    1.0000 </r>
       <r>   -3.3523    1.0000 </r>
       <r>   -3.3522    1.0000 </r>
       <r>   -3.3084    1.0000 </r>
       <r>   -3.2426    1.0000 </r>
       <r>   -3.2343    1.0000 </r>
       <r>   -3.2343    1.0000 </r>
       <r>   -3.1463    1.0000 </r>
       <r>   -3.1463    1.0000 </r>
       <r>   -2.9655    1.0000 </r>
       <r>   -2.9241    1.0000 </r>
       <r>   -2.9241    1.0000 </r>
       <r>   -2.8398    1.0000 </r>
       <r>   -2.8398    1.0000 </r>
       <r>   -2.7852    1.0000 </r>
       <r>   -2.7667    1.0000 </r>
       <r>   -2.7667    1.0000 </r>
       <r>   -2.6597    1.0000 </r>
       <r>   -2.6597    1.0000 </r>
       <r>   -2.5856    1.0000 </r>
       <r>   -2.5855    1.0000 </r>
       <r>   -2.5589    1.0000 </r>
       <r>   -2.5568    1.0000 </r>
       <r>   -2.4399    1.0000 </r>
       <r>   -2.4399    1.0000 </r>
       <r>   -2.4082    1.0000 </r>
       <r>   -2.4011    1.0000 </r>
       <r>   -2.4011    1.0000 </r>
       <r>   -2.3793    1.0000 </r>
       <r>   -2.3793    1.0000 </r>
       <r>   -2.3694    1.0000 </r>
       <r>   -2.3240    1.0000 </r>
       <r>   -2.3240    1.0000 </r>
       <r>   -2.3223    1.0000 </r>
       <r>   -2.3050    1.0000 </r>
       <r>   -2.3050    1.0000 </r>
       <r>   -2.2229    1.0000 </r>
       <r>   -2.2228    1.0000 </r>
       <r>   -2.2024    1.0000 </r>
       <r>   -2.1489    1.0000 </r>
       <r>   -2.1359    1.0000 </r>
       <r>   -2.1358    1.0000 </r>
       <r>   -1.5386    1.0000 </r>
       <r>   -1.0791    1.0308 </r>
       <r>   -1.0791    1.0308 </r>
       <r>   -0.9361    0.9636 </r>
       <r>   -0.4114   -0.0105 </r>
       <r>   -0.2322   -0.0003 </r>
       <r>   -0.2321   -0.0003 </r>
       <r>    0.2084   -0.0000 </r>
       <r>    0.2678   -0.0000 </r>
       <r>    0.2678   -0.0000 </r>
       <r>    0.6749   -0.0000 </r>
       <r>    0.6749   -0.0000 </r>
       <r>    0.7092   -0.0000 </r>
       <r>    1.3815   -0.0000 </r>
       <r>    1.3818   -0.0000 </r>
       <r>    2.2536   -0.0000 </r>
       <r>    3.2445   -0.0000 </r>
       <r>    3.3136   -0.0000 </r>
       <r>    3.3137   -0.0000 </r>
       <r>    3.6196   -0.0000 </r>
       <r>    3.6645   -0.0000 </r>
       <r>    4.3732   -0.0000 </r>
       <r>    4.3733   -0.0000 </r>
       <r>    4.4898   -0.0000 </r>
      </set>
      <set comment="kpoint 2">
       <r>  -24.2356    1.0000 </r>
       <r>  -11.0713    1.0000 </r>
       <r>   -8.9765    1.0000 </r>
       <r>   -8.1951    1.0000 </r>
       <r>   -7.4692    1.0000 </r>
       <r>   -7.3938    1.0000 </r>
       <r>   -7.2903    1.0000 </r>
       <r>   -5.9455    1.0000 </r>
       <r>   -5.6568    1.0000 </r>
       <r>   -5.3850    1.0000 </r>
       <r>   -5.3093    1.0000 </r>
       <r>   -5.2701    1.0000 </r>
       <r>   -5.2310    1.0000 </r>
       <r>   -5.1307    1.0000 </r>
       <r>   -5.1199    1.0000 </r>
       <r>   -4.9764    1.0000 </r>
       <r>   -4.8679    1.0000 </r>
       <r>   -4.8210    1.0000 </r>
       <r>   -4.7376    1.0000 </r>
       <r>   -4.7172    1.0000 </r>
       <r>   -4.7137    1.0000 </r>
       <r>   -4.6616    1.0000 </r>
       <r>   -4.6498    1.0000 </r>
       <r>   -4.5889    1.0000 </r>
       <r>   -4.3865    1.0000 </r>
       <r>   -4.3820    1.0000 </r>
       <r>   -4.3043    1.0000 </r>
       <r>   -4.0175    1.0000 </r>
       <r>   -3.9979    1.0000 </r>
       <r>   -3.9340    1.0000 </r>
       <r>   -3.8982    1.0000 </r>
       <r>   -3.7945    1.0000 </r>
       <r>   -3.7348    1.0000 </r>
       <r>   -3.7159    1.0000 </r>
       <r>   -3.6872    1.0000 </r>
       <r>   -3.6712    1.0000 </r>
       <r>   -3.6675    1.0000 </r>
       <r>   -3.6376    1.0000 </r>
       <r>   -3.6240    1.0000 </r>
       <r>   -3.5929    1.0000 </r>
       <r>   -3.5898    1.0000 </r>
       <r>   -3.5495    1.0000 </r>
       <r>   -3.5410    1.0000 </r>
       <r>   -3.5038    1.0000 </r>
       <r>   -3.4819    1.0000 </r>
       <r>   -3.4664    1.0000 </r>
       <r>   -3.4584    1.0000 </r>
       <r>   -3.4527    1.0000 </r>
       <r>   -3.3888    1.0000 </r>
       <r>   -3.3750    1.0000 </r>
       <r>   -3.3352    1.0000 </r>
       <r>   -3.2703    1.0000 </r>
       <r>   -3.2197    1.0000 </r>
       <r>   -3.2101    1.0000 </r>
       <r>   -3.1711    1.0000 </r>
       <r>   -3.1673    1.0000 </r>
       <r>   -2.9970    1.0000 </r>
       <r>   -2.9550    1.0000 </r>
       <r>   -2.9550    1.0000 </r>
       <r>   -2.9062    1.0000 </r>
       <r>   -2.8634    1.0000 </r>
       <r>   -2.8454    1.0000 </r>
       <r>   -2.8172    1.0000 </r>
       <r>   -2.7703    1.0000 </r>
       <r>   -2.7645    1.0000 </r>
       <r>   -2.7574    1.0000 </r>
       <r>   -2.7070    1.0000 </r>
       <r>   -2.6835    1.0000 </r>
       <r>   -2.6414    1.0000 </r>
       <r>   -2.6080    1.0000 </r>
       <r>   -2.5673    1.0000 </r>
       <r>   -2.5289    1.0000 </r>
       <r>   -2.5072    1.0000 </r>
       <r>   -2.4834    1.0000 </r>
       <r>   -2.4795    1.0000 </r>
       <r>   -2.4507    1.0000 </r>
       <r>   -2.4467    1.0000 </r>
       <r>   -2.4287    1.0000 </r>
       <r>   -2.4043    1.0000 </r>
       <r>   -2.3856    1.0000 </r>
       <r>   -2.3642    1.0000 </r>
       <r>   -2.3431    1.0000 </r>
       <r>   -2.3380    1.0000 </r>
       <r>   -2.3162    1.0000 </r>
       <r>   -2.2983    1.0000 </r>
       <r>   -2.2565    1.0000 </r>
       <r>   -2.2509    1.0000 </r>
       <r>   -2.2450    1.0000 </r>
       <r>   -2.0930    1.0000 </r>
       <r>   -1.7048    1.0000 </r>
       <r>   -1.1340    1.0185 </r>
       <r>   -1.0356    1.0354 </r>
       <r>   -0.8375    0.6797 </r>
       <r>   -0.5273   -0.0339 </r>
       <r>   -0.4889   -0.0265 </r>
       <r>   -0.2990   -0.0013 </r>
       <r>    0.3296   -0.0000 </r>
       <r>    0.4506   -0.0000 </r>
       <r>    1.0862   -0.0000 </r>
       <r>    1.4091   -0.0000 </r>
       <r>    1.6339   -0.0000 </r>
       <r>    2.0838   -0.0000 </r>
       <r>    2.1940   -0.0000 </r>
       <r>    2.9522   -0.0000 </r>
       <r>    3.5146   -0.0000 </r>
       <r>    3.6011   -0.0000 </r>
       <r>    3.8127   -0.0000 </r>
       <r>    3.9614   -0.0000 </r>
       <r>    4.1426   -0.0000 </r>
       <r>    4.7248    0.0000 </r>
       <r>    4.7622    0.0000 </r>
       <r>    4.8227    0.0000 </r>
      </set>
      <set comment="kpoint 3">
       <r>  -24.2356    1.0000 </r>
       <r>  -10.9916    1.0000 </r>
       <r>   -8.2421    1.0000 </r>
       <r>   -7.8702    1.0000 </r>
       <r>   -7.5532    1.0000 </r>
       <r>   -7.4020    1.0000 </r>
       <r>   -6.7973    1.0000 </r>
       <r>   -6.6904    1.0000 </r>
       <r>   -5.8569    1.0000 </r>
       <r>   -5.3844    1.0000 </r>
       <r>   -5.1492    1.0000 </r>
       <r>   -5.1285    1.0000 </r>
       <r>   -4.9859    1.0000 </r>
       <r>   -4.9390    1.0000 </r>
       <r>   -4.9058    1.0000 </r>
       <r>   -4.8918    1.0000 </r>
       <r>   -4.6944    1.0000 </r>
       <r>   -4.6913    1.0000 </r>
       <r>   -4.6359    1.0000 </r>
       <r>   -4.4994    1.0000 </r>
       <r>   -4.4971    1.0000 </r>
       <r>   -4.4605    1.0000 </r>
       <r>   -4.3774    1.0000 </r>
       <r>   -4.3728    1.0000 </r>
       <r>   -4.2273    1.0000 </r>
       <r>   -4.2118    1.0000 </r>
       <r>   -4.1772    1.0000 </r>
       <r>   -4.1551    1.0000 </r>
       <r>   -4.1127    1.0000 </r>
       <r>   -4.0876    1.0000 </r>
       <r>   -3.9907    1.0000 </r>
       <r>   -3.9484    1.0000 </r>
       <r>   -3.9283    1.0000 </r>
       <r>   -3.8658    1.0000 </r>
       <r>   -3.8610    1.0000 </r>
       <r>   -3.8390    1.0000 </r>
       <r>   -3.8106    1.0000 </r>
       <r>   -3.7847    1.0000 </r>
       <r>   -3.7481    1.0000 </r>
       <r>   -3.7462    1.0000 </r>
       <r>   -3.6881    1.0000 </r>
       <r>   -3.6105    1.0000 </r>
       <r>   -3.6046    1.0000 </r>
       <r>   -3.5710    1.0000 </r>
       <r>   -3.5344    1.0000 </r>
       <r>   -3.4657    1.0000 </r>
       <r>   -3.4572    1.0000 </r>
       <r>   -3.4041    1.0000 </r>
       <r>   -3.3984    1.0000 </r>
       <r>   -3.3932    1.0000 </r>
       <r>   -3.3914    1.0000 </r>
       <r>   -3.3353    1.0000 </r>
       <r>   -3.3036    1.0000 </r>
       <r>   -3.2994    1.0000 </r>
       <r>   -3.2657    1.0000 </r>
       <r>   -3.2606    1.0000 </r>
       <r>   -3.2117    1.0000 </r>
       <r>   -3.1980    1.0000 </r>
       <r>   -3.1748    1.0000 </r>
       <r>   -3.1479    1.0000 </r>
       <r>   -3.1110    1.0000 </r>
       <r>   -3.0816    1.0000 </r>
       <r>   -3.0391    1.0000 </r>
       <r>   -2.9429    1.0000 </r>
       <r>   -2.9336    1.0000 </r>
       <r>   -2.9254    1.0000 </r>
       <r>   -2.8850    1.0000 </r>
       <r>   -2.8515    1.0000 </r>
       <r>   -2.8392    1.0000 </r>
       <r>   -2.8156    1.0000 </r>
       <r>   -2.7937    1.0000 </r>
       <r>   -2.7679    1.0000 </r>
       <r>   -2.7434    1.0000 </r>
       <r>   -2.7236    1.0000 </r>
       <r>   -2.7159    1.0000 </r>
       <r>   -2.6439    1.0000 </r>
       <r>   -2.6407    1.0000 </r>
       <r>   -2.6029    1.0000 </r>
       <r>   -2.5726    1.0000 </r>
       <r>   -2.5497    1.0000 </r>
       <r>   -2.5159    1.0000 </r>
       <r>   -2.4623    1.0000 </r>
       <r>   -2.3859    1.0000 </r>
       <r>   -2.3675    1.0000 </r>
       <r>   -2.3592    1.0000 </r>
       <r>   -2.3031    1.0000 </r>
       <r>   -2.2980    1.0000 </r>
       <r>   -2.2582    1.0000 </r>
       <r>   -2.2474    1.0000 </r>
       <r>   -1.8483    1.0000 </r>
       <r>   -1.3261    1.0005 </r>
       <r>   -1.0206    1.0340 </r>
       <r>   -0.8997    0.8856 </r>
       <r>   -0.6169   -0.0088 </r>
       <r>   -0.5028   -0.0296 </r>
       <r>    0.0047   -0.0000 </r>
       <r>    0.4119   -0.0000 </r>
       <r>    0.5575   -0.0000 </r>
       <r>    0.9904   -0.0000 </r>
       <r>    1.9136   -0.0000 </r>
       <r>    1.9375   -0.0000 </r>
       <r>    2.5370   -0.0000 </r>
       <r>    3.2207   -0.0000 </r>
       <r>    3.8085   -0.0000 </r>
       <r>    4.2573   -0.0000 </r>
       <r>    4.4295   -0.0000 </r>
       <r>    4.6533   -0.0000 </r>
       <r>    4.8432    0.0000 </r>
       <r>    5.0232    0.0000 </r>
       <r>    5.5774    0.0000 </r>
       <r>    5.6531    0.0000 </r>
       <r>    5.6800    0.0000 </r>
      </set>
      <set comment="kpoint 4">
       <r>  -24.2356    1.0000 </r>
       <r>  -11.0713    1.0000 </r>
       <r>   -8.9765    1.0000 </r>
       <r>   -8.1951    1.0000 </r>
       <r>   -7.4692    1.0000 </r>
       <r>   -7.3938    1.0000 </r>
       <r>   -7.2903    1.0000 </r>
       <r>   -5.9455    1.0000 </r>
       <r>   -5.6568    1.0000 </r>
       <r>   -5.3850    1.0000 </r>
       <r>   -5.3093    1.0000 </r>
       <r>   -5.2701    1.0000 </r>
       <r>   -5.2310    1.0000 </r>
       <r>   -5.1307    1.0000 </r>
       <r>   -5.1199    1.0000 </r>
       <r>   -4.9764    1.0000 </r>
       <r>   -4.8679    1.0000 </r>
       <r>   -4.8210    1.0000 </r>
       <r>   -4.7376    1.0000 </r>
       <r>   -4.7172    1.0000 </r>
       <r>   -4.7137    1.0000 </r>
       <r>   -4.6616    1.0000 </r>
       <r>   -4.6498    1.0000 </r>
       <r>   -4.5889    1.0000 </r>
       <r>   -4.3865    1.0000 </r>
       <r>   -4.3820    1.0000 </r>
       <r>   -4.3043    1.0000 </r>
       <r>   -4.0175    1.0000 </r>
       <r>   -3.9979    1.0000 </r>
       <r>   -3.9340    1.0000 </r>
       <r>   -3.8982    1.0000 </r>
       <r>   -3.7945    1.0000 </r>
       <r>   -3.7348    1.0000 </r>
       <r>   -3.7159    1.0000 </r>
       <r>   -3.6872    1.0000 </r>
       <r>   -3.6712    1.0000 </r>
       <r>   -3.6675    1.0000 </r>
       <r>   -3.6376    1.0000 </r>
       <r>   -3.6240    1.0000 </r>
       <r>   -3.5929    1.0000 </r>
       <r>   -3.5898    1.0000 </r>
       <r>   -3.5495    1.0000 </r>
       <r>   -3.5410    1.0000 </r>
       <r>   -3.5038    1.0000 </r>
       <r>   -3.4819    1.0000 </r>
       <r>   -3.4664    1.0000 </r>
       <r>   -3.4584    1.0000 </r>
       <r>   -3.4527    1.0000 </r>
       <r>   -3.3888    1.0000 </r>
       <r>   -3.3750    1.0000 </r>
       <r>   -3.3352    1.0000 </r>
       <r>   -3.2703    1.0000 </r>
       <r>   -3.2197    1.0000 </r>
       <r>   -3.2101    1.0000 </r>
       <r>   -3.1711    1.0000 </r>
       <r>   -3.1673    1.0000 </r>
       <r>   -2.9970    1.0000 </r>
       <r>   -2.9550    1.0000 </r>
       <r>   -2.9550    1.0000 </r>
       <r>   -2.9062    1.0000 </r>
       <r>   -2.8634    1.0000 </r>
       <r>   -2.8454    1.0000 </r>
       <r>   -2.8172    1.0000 </r>
       <r>   -2.7703    1.0000 </r>
       <r>   -2.7645    1.0000 </r>
       <r>   -2.7574    1.0000 </r>
       <r>   -2.7070    1.0000 </r>
       <r>   -2.6835    1.0000 </r>
       <r>   -2.6414    1.0000 </r>
       <r>   -2.6080    1.0000 </r>
       <r>   -2.5673    1.0000 </r>
       <r>   -2.5289    1.0000 </r>
       <r>   -2.5072    1.0000 </r>
       <r>   -2.4834    1.0000 </r>
       <r>   -2.4795    1.0000 </r>
       <r>   -2.4507    1.0000 </r>
       <r>   -2.4467    1.0000 </r>
       <r>   -2.4287    1.0000 </r>
       <r>   -2.4043    1.0000 </r>
       <r>   -2.3856    1.0000 </r>
       <r>   -2.3642    1.0000 </r>
       <r>   -2.3431    1.0000 </r>
       <r>   -2.3380    1.0000 </r>
       <r>   -2.3162    1.0000 </r>
       <r>   -2.2983    1.0000 </r>
       <r>   -2.2565    1.0000 </r>
       <r>   -2.2509    1.0000 </r>
       <r>   -2.2450    1.0000 </r>
       <r>   -2.0930    1.0000 </r>
       <r>   -1.7048    1.0000 </r>
       <r>   -1.1340    1.0185 </r>
       <r>   -1.0356    1.0354 </r>
       <r>   -0.8375    0.6797 </r>
       <r>   -0.5273   -0.0339 </r>
       <r>   -0.4889   -0.0265 </r>
       <r>   -0.2990   -0.0013 </r>
       <r>    0.3296   -0.0000 </r>
       <r>    0.4506   -0.0000 </r>
       <r>    1.0862   -0.0000 </r>
       <r>    1.4091   -0.0000 </r>
       <r>    1.6339   -0.0000 </r>
       <r>    2.0838   -0.0000 </r>
       <r>    2.1940   -0.0000 </r>
       <r>    2.9522   -0.0000 </r>
       <r>    3.5146   -0.0000 </r>
       <r>    3.6011   -0.0000 </r>
       <r>    3.8127   -0.0000 </r>
       <r>    3.9614   -0.0000 </r>
       <r>    4.1426   -0.0000 </r>
       <r>    4.7248    0.0000 </r>
       <r>    4.7622    0.0000 </r>
       <r>    4.8227    0.0000 </r>
      </set>
      <set comment="kpoint 5">
       <r>  -24.2356    1.0000 </r>
       <r>  -11.0713    1.0000 </r>
       <r>   -8.9765    1.0000 </r>
       <r>   -8.1951    1.0000 </r>
       <r>   -7.4696    1.0000 </r>
       <r>   -7.3934    1.0000 </r>
       <r>   -7.2905    1.0000 </r>
       <r>   -5.9455    1.0000 </r>
       <r>   -5.6568    1.0000 </r>
       <r>   -5.3849    1.0000 </r>
       <r>   -5.3093    1.0000 </r>
       <r>   -5.2701    1.0000 </r>
       <r>   -5.2310    1.0000 </r>
       <r>   -5.1307    1.0000 </r>
       <r>   -5.1199    1.0000 </r>
       <r>   -4.9763    1.0000 </r>
       <r>   -4.8679    1.0000 </r>
       <r>   -4.8210    1.0000 </r>
       <r>   -4.7375    1.0000 </r>
       <r>   -4.7172    1.0000 </r>
       <r>   -4.7137    1.0000 </r>
       <r>   -4.6616    1.0000 </r>
       <r>   -4.6499    1.0000 </r>
       <r>   -4.5889    1.0000 </r>
       <r>   -4.3865    1.0000 </r>
       <r>   -4.3821    1.0000 </r>
       <r>   -4.3043    1.0000 </r>
       <r>   -4.0175    1.0000 </r>
       <r>   -3.9979    1.0000 </r>
       <r>   -3.9339    1.0000 </r>
       <r>   -3.8982    1.0000 </r>
       <r>   -3.7944    1.0000 </r>
       <r>   -3.7348    1.0000 </r>
       <r>   -3.7158    1.0000 </r>
       <r>   -3.6871    1.0000 </r>
       <r>   -3.6713    1.0000 </r>
       <r>   -3.6675    1.0000 </r>
       <r>   -3.6376    1.0000 </r>
       <r>   -3.6240    1.0000 </r>
       <r>   -3.5930    1.0000 </r>
       <r>   -3.5897    1.0000 </r>
       <r>   -3.5495    1.0000 </r>
       <r>   -3.5411    1.0000 </r>
       <r>   -3.5039    1.0000 </r>
       <r>   -3.4818    1.0000 </r>
       <r>   -3.4664    1.0000 </r>
       <r>   -3.4585    1.0000 </r>
       <r>   -3.4528    1.0000 </r>
       <r>   -3.3888    1.0000 </r>
       <r>   -3.3749    1.0000 </r>
       <r>   -3.3351    1.0000 </r>
       <r>   -3.2703    1.0000 </r>
       <r>   -3.2197    1.0000 </r>
       <r>   -3.2101    1.0000 </r>
       <r>   -3.1711    1.0000 </r>
       <r>   -3.1673    1.0000 </r>
       <r>   -2.9970    1.0000 </r>
       <r>   -2.9550    1.0000 </r>
       <r>   -2.9550    1.0000 </r>
       <r>   -2.9062    1.0000 </r>
       <r>   -2.8634    1.0000 </r>
       <r>   -2.8454    1.0000 </r>
       <r>   -2.8173    1.0000 </r>
       <r>   -2.7703    1.0000 </r>
       <r>   -2.7645    1.0000 </r>
       <r>   -2.7574    1.0000 </r>
       <r>   -2.7070    1.0000 </r>
       <r>   -2.6835    1.0000 </r>
       <r>   -2.6413    1.0000 </r>
       <r>   -2.6080    1.0000 </r>
       <r>   -2.5674    1.0000 </r>
       <r>   -2.5289    1.0000 </r>
       <r>   -2.5072    1.0000 </r>
       <r>   -2.4835    1.0000 </r>
       <r>   -2.4795    1.0000 </r>
       <r>   -2.4508    1.0000 </r>
       <r>   -2.4467    1.0000 </r>
       <r>   -2.4288    1.0000 </r>
       <r>   -2.4043    1.0000 </r>
       <r>   -2.3856    1.0000 </r>
       <r>   -2.3642    1.0000 </r>
       <r>   -2.3430    1.0000 </r>
       <r>   -2.3381    1.0000 </r>
       <r>   -2.3162    1.0000 </r>
       <r>   -2.2984    1.0000 </r>
       <r>   -2.2564    1.0000 </r>
       <r>   -2.2507    1.0000 </r>
       <r>   -2.2451    1.0000 </r>
       <r>   -2.0930    1.0000 </r>
       <r>   -1.7048    1.0000 </r>
       <r>   -1.1339    1.0185 </r>
       <r>   -1.0355    1.0354 </r>
       <r>   -0.8375    0.6797 </r>
       <r>   -0.5273   -0.0339 </r>
       <r>   -0.4890   -0.0265 </r>
       <r>   -0.2989   -0.0013 </r>
       <r>    0.3297   -0.0000 </r>
       <r>    0.4508   -0.0000 </r>
       <r>    1.0861   -0.0000 </r>
       <r>    1.4092   -0.0000 </r>
       <r>    1.6338   -0.0000 </r>
       <r>    2.0835   -0.0000 </r>
       <r>    2.1940   -0.0000 </r>
       <r>    2.9522   -0.0000 </r>
       <r>    3.5147   -0.0000 </r>
       <r>    3.6010   -0.0000 </r>
       <r>    3.8125   -0.0000 </r>
       <r>    3.9613   -0.0000 </r>
       <r>    4.1430   -0.0000 </r>
       <r>    4.7246    0.0000 </r>
       <r>    4.7618    0.0000 </r>
       <r>    4.8234    0.0000 </r>
      </set>
      <set comment="kpoint 6">
       <r>  -24.2354    1.0000 </r>
       <r>  -11.0071    1.0000 </r>
       <r>   -8.4546    1.0000 </r>
       <r>   -7.9696    1.0000 </r>
       <r>   -7.5113    1.0000 </r>
       <r>   -7.4193    1.0000 </r>
       <r>   -6.9132    1.0000 </r>
       <r>   -5.9856    1.0000 </r>
       <r>   -5.9755    1.0000 </r>
       <r>   -5.5682    1.0000 </r>
       <r>   -5.4008    1.0000 </r>
       <r>   -5.3413    1.0000 </r>
       <r>   -5.0323    1.0000 </r>
       <r>   -4.9030    1.0000 </r>
       <r>   -4.8810    1.0000 </r>
       <r>   -4.8583    1.0000 </r>
       <r>   -4.8233    1.0000 </r>
       <r>   -4.5982    1.0000 </r>
       <r>   -4.5926    1.0000 </r>
       <r>   -4.5872    1.0000 </r>
       <r>   -4.5520    1.0000 </r>
       <r>   -4.4900    1.0000 </r>
       <r>   -4.4695    1.0000 </r>
       <r>   -4.4286    1.0000 </r>
       <r>   -4.2659    1.0000 </r>
       <r>   -4.2508    1.0000 </r>
       <r>   -4.2295    1.0000 </r>
       <r>   -4.1348    1.0000 </r>
       <r>   -4.0425    1.0000 </r>
       <r>   -4.0273    1.0000 </r>
       <r>   -3.9904    1.0000 </r>
       <r>   -3.9441    1.0000 </r>
       <r>   -3.9009    1.0000 </r>
       <r>   -3.8334    1.0000 </r>
       <r>   -3.8201    1.0000 </r>
       <r>   -3.7954    1.0000 </r>
       <r>   -3.7921    1.0000 </r>
       <r>   -3.7629    1.0000 </r>
       <r>   -3.6986    1.0000 </r>
       <r>   -3.6617    1.0000 </r>
       <r>   -3.6166    1.0000 </r>
       <r>   -3.6021    1.0000 </r>
       <r>   -3.5708    1.0000 </r>
       <r>   -3.5520    1.0000 </r>
       <r>   -3.5289    1.0000 </r>
       <r>   -3.4846    1.0000 </r>
       <r>   -3.4570    1.0000 </r>
       <r>   -3.4255    1.0000 </r>
       <r>   -3.4211    1.0000 </r>
       <r>   -3.4017    1.0000 </r>
       <r>   -3.3580    1.0000 </r>
       <r>   -3.3523    1.0000 </r>
       <r>   -3.3035    1.0000 </r>
       <r>   -3.2499    1.0000 </r>
       <r>   -3.2274    1.0000 </r>
       <r>   -3.2219    1.0000 </r>
       <r>   -3.2051    1.0000 </r>
       <r>   -3.1454    1.0000 </r>
       <r>   -3.1169    1.0000 </r>
       <r>   -3.0791    1.0000 </r>
       <r>   -3.0692    1.0000 </r>
       <r>   -3.0467    1.0000 </r>
       <r>   -3.0187    1.0000 </r>
       <r>   -2.9719    1.0000 </r>
       <r>   -2.9120    1.0000 </r>
       <r>   -2.8790    1.0000 </r>
       <r>   -2.8461    1.0000 </r>
       <r>   -2.8048    1.0000 </r>
       <r>   -2.7945    1.0000 </r>
       <r>   -2.7877    1.0000 </r>
       <r>   -2.7069    1.0000 </r>
       <r>   -2.7039    1.0000 </r>
       <r>   -2.6875    1.0000 </r>
       <r>   -2.6665    1.0000 </r>
       <r>   -2.6344    1.0000 </r>
       <r>   -2.5957    1.0000 </r>
       <r>   -2.5161    1.0000 </r>
       <r>   -2.4951    1.0000 </r>
       <r>   -2.4853    1.0000 </r>
       <r>   -2.4584    1.0000 </r>
       <r>   -2.4341    1.0000 </r>
       <r>   -2.4247    1.0000 </r>
       <r>   -2.3966    1.0000 </r>
       <r>   -2.3496    1.0000 </r>
       <r>   -2.3420    1.0000 </r>
       <r>   -2.3293    1.0000 </r>
       <r>   -2.3059    1.0000 </r>
       <r>   -2.1507    1.0000 </r>
       <r>   -2.1139    1.0000 </r>
       <r>   -2.0083    1.0000 </r>
       <r>   -1.9352    1.0000 </r>
       <r>   -1.5306    1.0000 </r>
       <r>   -0.9518    0.9872 </r>
       <r>   -0.8226    0.6200 </r>
       <r>    0.0693   -0.0000 </r>
       <r>    0.6015   -0.0000 </r>
       <r>    0.7117   -0.0000 </r>
       <r>    0.8027   -0.0000 </r>
       <r>    1.1840   -0.0000 </r>
       <r>    1.5668   -0.0000 </r>
       <r>    1.9814   -0.0000 </r>
       <r>    2.1769   -0.0000 </r>
       <r>    2.7913   -0.0000 </r>
       <r>    3.2017   -0.0000 </r>
       <r>    3.9449   -0.0000 </r>
       <r>    4.1123   -0.0000 </r>
       <r>    4.3881   -0.0000 </r>
       <r>    4.5734   -0.0000 </r>
       <r>    4.9460    0.0000 </r>
       <r>    5.3229    0.0000 </r>
       <r>    5.4242    0.0000 </r>
       <r>    5.5620    0.0000 </r>
      </set>
      <set comment="kpoint 7">
       <r>  -24.2356    1.0000 </r>
       <r>  -10.9687    1.0000 </r>
       <r>   -8.0106    1.0000 </r>
       <r>   -7.6193    1.0000 </r>
       <r>   -7.4522    1.0000 </r>
       <r>   -7.2205    1.0000 </r>
       <r>   -7.1690    1.0000 </r>
       <r>   -6.2137    1.0000 </r>
       <r>   -6.1248    1.0000 </r>
       <r>   -6.0377    1.0000 </r>
       <r>   -5.3738    1.0000 </r>
       <r>   -5.0546    1.0000 </r>
       <r>   -4.9453    1.0000 </r>
       <r>   -4.7338    1.0000 </r>
       <r>   -4.6612    1.0000 </r>
       <r>   -4.6216    1.0000 </r>
       <r>   -4.6079    1.0000 </r>
       <r>   -4.5783    1.0000 </r>
       <r>   -4.5247    1.0000 </r>
       <r>   -4.4203    1.0000 </r>
       <r>   -4.3876    1.0000 </r>
       <r>   -4.3149    1.0000 </r>
       <r>   -4.3079    1.0000 </r>
       <r>   -4.3021    1.0000 </r>
       <r>   -4.2814    1.0000 </r>
       <r>   -4.2482    1.0000 </r>
       <r>   -4.2064    1.0000 </r>
       <r>   -4.1550    1.0000 </r>
       <r>   -4.1340    1.0000 </r>
       <r>   -4.1077    1.0000 </r>
       <r>   -4.0785    1.0000 </r>
       <r>   -4.0597    1.0000 </r>
       <r>   -4.0399    1.0000 </r>
       <r>   -3.9956    1.0000 </r>
       <r>   -3.8934    1.0000 </r>
       <r>   -3.8851    1.0000 </r>
       <r>   -3.8776    1.0000 </r>
       <r>   -3.8601    1.0000 </r>
       <r>   -3.8181    1.0000 </r>
       <r>   -3.7806    1.0000 </r>
       <r>   -3.7595    1.0000 </r>
       <r>   -3.7130    1.0000 </r>
       <r>   -3.6726    1.0000 </r>
       <r>   -3.6568    1.0000 </r>
       <r>   -3.6336    1.0000 </r>
       <r>   -3.6305    1.0000 </r>
       <r>   -3.5890    1.0000 </r>
       <r>   -3.5425    1.0000 </r>
       <r>   -3.5121    1.0000 </r>
       <r>   -3.4348    1.0000 </r>
       <r>   -3.4066    1.0000 </r>
       <r>   -3.3802    1.0000 </r>
       <r>   -3.3690    1.0000 </r>
       <r>   -3.3281    1.0000 </r>
       <r>   -3.3030    1.0000 </r>
       <r>   -3.2802    1.0000 </r>
       <r>   -3.2324    1.0000 </r>
       <r>   -3.1507    1.0000 </r>
       <r>   -3.1414    1.0000 </r>
       <r>   -3.0959    1.0000 </r>
       <r>   -3.0818    1.0000 </r>
       <r>   -3.0359    1.0000 </r>
       <r>   -3.0158    1.0000 </r>
       <r>   -2.9952    1.0000 </r>
       <r>   -2.9741    1.0000 </r>
       <r>   -2.9143    1.0000 </r>
       <r>   -2.8955    1.0000 </r>
       <r>   -2.8699    1.0000 </r>
       <r>   -2.8282    1.0000 </r>
       <r>   -2.8146    1.0000 </r>
       <r>   -2.7819    1.0000 </r>
       <r>   -2.7538    1.0000 </r>
       <r>   -2.7363    1.0000 </r>
       <r>   -2.7107    1.0000 </r>
       <r>   -2.6610    1.0000 </r>
       <r>   -2.6407    1.0000 </r>
       <r>   -2.6108    1.0000 </r>
       <r>   -2.5799    1.0000 </r>
       <r>   -2.5490    1.0000 </r>
       <r>   -2.5413    1.0000 </r>
       <r>   -2.5248    1.0000 </r>
       <r>   -2.4658    1.0000 </r>
       <r>   -2.4584    1.0000 </r>
       <r>   -2.4294    1.0000 </r>
       <r>   -2.4099    1.0000 </r>
       <r>   -2.3723    1.0000 </r>
       <r>   -2.3470    1.0000 </r>
       <r>   -2.3379    1.0000 </r>
       <r>   -2.1947    1.0000 </r>
       <r>   -2.0163    1.0000 </r>
       <r>   -1.8594    1.0000 </r>
       <r>   -1.7733    1.0000 </r>
       <r>   -1.1291    1.0196 </r>
       <r>   -0.6080   -0.0162 </r>
       <r>   -0.1823   -0.0001 </r>
       <r>    0.6225   -0.0000 </r>
       <r>    0.8714   -0.0000 </r>
       <r>    1.2375   -0.0000 </r>
       <r>    1.5284   -0.0000 </r>
       <r>    1.9341   -0.0000 </r>
       <r>    2.3416   -0.0000 </r>
       <r>    2.9357   -0.0000 </r>
       <r>    3.0920   -0.0000 </r>
       <r>    3.7597   -0.0000 </r>
       <r>    3.8773   -0.0000 </r>
       <r>    4.2506   -0.0000 </r>
       <r>    4.6223   -0.0000 </r>
       <r>    4.9206    0.0000 </r>
       <r>    5.0741    0.0000 </r>
       <r>    5.1701    0.0000 </r>
       <r>    5.6163    0.0000 </r>
       <r>    5.7147    0.0000 </r>
      </set>
      <set comment="kpoint 8">
       <r>  -24.2354    1.0000 </r>
       <r>  -11.0071    1.0000 </r>
       <r>   -8.4546    1.0000 </r>
       <r>   -7.9696    1.0000 </r>
       <r>   -7.5106    1.0000 </r>
       <r>   -7.4199    1.0000 </r>
       <r>   -6.9132    1.0000 </r>
       <r>   -5.9855    1.0000 </r>
       <r>   -5.9755    1.0000 </r>
       <r>   -5.5682    1.0000 </r>
       <r>   -5.4008    1.0000 </r>
       <r>   -5.3413    1.0000 </r>
       <r>   -5.0323    1.0000 </r>
       <r>   -4.9030    1.0000 </r>
       <r>   -4.8810    1.0000 </r>
       <r>   -4.8582    1.0000 </r>
       <r>   -4.8233    1.0000 </r>
       <r>   -4.5982    1.0000 </r>
       <r>   -4.5927    1.0000 </r>
       <r>   -4.5872    1.0000 </r>
       <r>   -4.5519    1.0000 </r>
       <r>   -4.4900    1.0000 </r>
       <r>   -4.4695    1.0000 </r>
       <r>   -4.4286    1.0000 </r>
       <r>   -4.2659    1.0000 </r>
       <r>   -4.2508    1.0000 </r>
       <r>   -4.2294    1.0000 </r>
       <r>   -4.1348    1.0000 </r>
       <r>   -4.0426    1.0000 </r>
       <r>   -4.0273    1.0000 </r>
       <r>   -3.9904    1.0000 </r>
       <r>   -3.9441    1.0000 </r>
       <r>   -3.9009    1.0000 </r>
       <r>   -3.8334    1.0000 </r>
       <r>   -3.8201    1.0000 </r>
       <r>   -3.7954    1.0000 </r>
       <r>   -3.7921    1.0000 </r>
       <r>   -3.7629    1.0000 </r>
       <r>   -3.6986    1.0000 </r>
       <r>   -3.6617    1.0000 </r>
       <r>   -3.6166    1.0000 </r>
       <r>   -3.6021    1.0000 </r>
       <r>   -3.5708    1.0000 </r>
       <r>   -3.5520    1.0000 </r>
       <r>   -3.5290    1.0000 </r>
       <r>   -3.4846    1.0000 </r>
       <r>   -3.4569    1.0000 </r>
       <r>   -3.4255    1.0000 </r>
       <r>   -3.4211    1.0000 </r>
       <r>   -3.4017    1.0000 </r>
       <r>   -3.3580    1.0000 </r>
       <r>   -3.3522    1.0000 </r>
       <r>   -3.3035    1.0000 </r>
       <r>   -3.2499    1.0000 </r>
       <r>   -3.2274    1.0000 </r>
       <r>   -3.2219    1.0000 </r>
       <r>   -3.2050    1.0000 </r>
       <r>   -3.1454    1.0000 </r>
       <r>   -3.1168    1.0000 </r>
       <r>   -3.0791    1.0000 </r>
       <r>   -3.0691    1.0000 </r>
       <r>   -3.0467    1.0000 </r>
       <r>   -3.0187    1.0000 </r>
       <r>   -2.9719    1.0000 </r>
       <r>   -2.9120    1.0000 </r>
       <r>   -2.8790    1.0000 </r>
       <r>   -2.8461    1.0000 </r>
       <r>   -2.8048    1.0000 </r>
       <r>   -2.7944    1.0000 </r>
       <r>   -2.7877    1.0000 </r>
       <r>   -2.7069    1.0000 </r>
       <r>   -2.7039    1.0000 </r>
       <r>   -2.6875    1.0000 </r>
       <r>   -2.6665    1.0000 </r>
       <r>   -2.6344    1.0000 </r>
       <r>   -2.5957    1.0000 </r>
       <r>   -2.5161    1.0000 </r>
       <r>   -2.4951    1.0000 </r>
       <r>   -2.4853    1.0000 </r>
       <r>   -2.4584    1.0000 </r>
       <r>   -2.4341    1.0000 </r>
       <r>   -2.4247    1.0000 </r>
       <r>   -2.3966    1.0000 </r>
       <r>   -2.3497    1.0000 </r>
       <r>   -2.3421    1.0000 </r>
       <r>   -2.3293    1.0000 </r>
       <r>   -2.3059    1.0000 </r>
       <r>   -2.1507    1.0000 </r>
       <r>   -2.1139    1.0000 </r>
       <r>   -2.0084    1.0000 </r>
       <r>   -1.9353    1.0000 </r>
       <r>   -1.5306    1.0000 </r>
       <r>   -0.9517    0.9871 </r>
       <r>   -0.8227    0.6203 </r>
       <r>    0.0692   -0.0000 </r>
       <r>    0.6015   -0.0000 </r>
       <r>    0.7117   -0.0000 </r>
       <r>    0.8027   -0.0000 </r>
       <r>    1.1838   -0.0000 </r>
       <r>    1.5667   -0.0000 </r>
       <r>    1.9811   -0.0000 </r>
       <r>    2.1770   -0.0000 </r>
       <r>    2.7916   -0.0000 </r>
       <r>    3.2016   -0.0000 </r>
       <r>    3.9446   -0.0000 </r>
       <r>    4.1131   -0.0000 </r>
       <r>    4.3884   -0.0000 </r>
       <r>    4.5727   -0.0000 </r>
       <r>    4.9461    0.0000 </r>
       <r>    5.3228    0.0000 </r>
       <r>    5.4243    0.0000 </r>
       <r>    5.5621    0.0000 </r>
      </set>
      <set comment="kpoint 9">
       <r>  -24.2356    1.0000 </r>
       <r>  -10.9916    1.0000 </r>
       <r>   -8.2421    1.0000 </r>
       <r>   -7.8702    1.0000 </r>
       <r>   -7.5532    1.0000 </r>
       <r>   -7.4020    1.0000 </r>
       <r>   -6.7973    1.0000 </r>
       <r>   -6.6904    1.0000 </r>
       <r>   -5.8569    1.0000 </r>
       <r>   -5.3844    1.0000 </r>
       <r>   -5.1492    1.0000 </r>
       <r>   -5.1285    1.0000 </r>
       <r>   -4.9859    1.0000 </r>
       <r>   -4.9390    1.0000 </r>
       <r>   -4.9058    1.0000 </r>
       <r>   -4.8918    1.0000 </r>
       <r>   -4.6944    1.0000 </r>
       <r>   -4.6913    1.0000 </r>
       <r>   -4.6359    1.0000 </r>
       <r>   -4.4994    1.0000 </r>
       <r>   -4.4971    1.0000 </r>
       <r>   -4.4605    1.0000 </r>
       <r>   -4.3774    1.0000 </r>
       <r>   -4.3728    1.0000 </r>
       <r>   -4.2273    1.0000 </r>
       <r>   -4.2118    1.0000 </r>
       <r>   -4.1772    1.0000 </r>
       <r>   -4.1551    1.0000 </r>
       <r>   -4.1127    1.0000 </r>
       <r>   -4.0876    1.0000 </r>
       <r>   -3.9907    1.0000 </r>
       <r>   -3.9484    1.0000 </r>
       <r>   -3.9283    1.0000 </r>
       <r>   -3.8658    1.0000 </r>
       <r>   -3.8610    1.0000 </r>
       <r>   -3.8390    1.0000 </r>
       <r>   -3.8106    1.0000 </r>
       <r>   -3.7847    1.0000 </r>
       <r>   -3.7481    1.0000 </r>
       <r>   -3.7462    1.0000 </r>
       <r>   -3.6881    1.0000 </r>
       <r>   -3.6105    1.0000 </r>
       <r>   -3.6046    1.0000 </r>
       <r>   -3.5710    1.0000 </r>
       <r>   -3.5344    1.0000 </r>
       <r>   -3.4657    1.0000 </r>
       <r>   -3.4572    1.0000 </r>
       <r>   -3.4041    1.0000 </r>
       <r>   -3.3984    1.0000 </r>
       <r>   -3.3932    1.0000 </r>
       <r>   -3.3914    1.0000 </r>
       <r>   -3.3353    1.0000 </r>
       <r>   -3.3037    1.0000 </r>
       <r>   -3.2994    1.0000 </r>
       <r>   -3.2657    1.0000 </r>
       <r>   -3.2606    1.0000 </r>
       <r>   -3.2117    1.0000 </r>
       <r>   -3.1980    1.0000 </r>
       <r>   -3.1748    1.0000 </r>
       <r>   -3.1479    1.0000 </r>
       <r>   -3.1110    1.0000 </r>
       <r>   -3.0816    1.0000 </r>
       <r>   -3.0391    1.0000 </r>
       <r>   -2.9429    1.0000 </r>
       <r>   -2.9336    1.0000 </r>
       <r>   -2.9254    1.0000 </r>
       <r>   -2.8850    1.0000 </r>
       <r>   -2.8515    1.0000 </r>
       <r>   -2.8392    1.0000 </r>
       <r>   -2.8156    1.0000 </r>
       <r>   -2.7937    1.0000 </r>
       <r>   -2.7679    1.0000 </r>
       <r>   -2.7434    1.0000 </r>
       <r>   -2.7236    1.0000 </r>
       <r>   -2.7159    1.0000 </r>
       <r>   -2.6439    1.0000 </r>
       <r>   -2.6407    1.0000 </r>
       <r>   -2.6029    1.0000 </r>
       <r>   -2.5726    1.0000 </r>
       <r>   -2.5497    1.0000 </r>
       <r>   -2.5159    1.0000 </r>
       <r>   -2.4623    1.0000 </r>
       <r>   -2.3859    1.0000 </r>
       <r>   -2.3675    1.0000 </r>
       <r>   -2.3592    1.0000 </r>
       <r>   -2.3031    1.0000 </r>
       <r>   -2.2980    1.0000 </r>
       <r>   -2.2582    1.0000 </r>
       <r>   -2.2474    1.0000 </r>
       <r>   -1.8483    1.0000 </r>
       <r>   -1.3261    1.0005 </r>
       <r>   -1.0206    1.0340 </r>
       <r>   -0.8997    0.8856 </r>
       <r>   -0.6169   -0.0088 </r>
       <r>   -0.5028   -0.0296 </r>
       <r>    0.0047   -0.0000 </r>
       <r>    0.4119   -0.0000 </r>
       <r>    0.5575   -0.0000 </r>
       <r>    0.9904   -0.0000 </r>
       <r>    1.9136   -0.0000 </r>
       <r>    1.9375   -0.0000 </r>
       <r>    2.5370   -0.0000 </r>
       <r>    3.2207   -0.0000 </r>
       <r>    3.8085   -0.0000 </r>
       <r>    4.2573   -0.0000 </r>
       <r>    4.4295   -0.0000 </r>
       <r>    4.6533   -0.0000 </r>
       <r>    4.8432    0.0000 </r>
       <r>    5.0232    0.0000 </r>
       <r>    5.5774    0.0000 </r>
       <r>    5.6531    0.0000 </r>
       <r>    5.6800    0.0000 </r>
      </set>
      <set comment="kpoint 10">
       <r>  -24.2354    1.0000 </r>
       <r>  -11.0071    1.0000 </r>
       <r>   -8.4546    1.0000 </r>
       <r>   -7.9696    1.0000 </r>
       <r>   -7.5113    1.0000 </r>
       <r>   -7.4193    1.0000 </r>
       <r>   -6.9132    1.0000 </r>
       <r>   -5.9856    1.0000 </r>
       <r>   -5.9755    1.0000 </r>
       <r>   -5.5682    1.0000 </r>
       <r>   -5.4008    1.0000 </r>
       <r>   -5.3413    1.0000 </r>
       <r>   -5.0323    1.0000 </r>
       <r>   -4.9030    1.0000 </r>
       <r>   -4.8810    1.0000 </r>
       <r>   -4.8583    1.0000 </r>
       <r>   -4.8233    1.0000 </r>
       <r>   -4.5982    1.0000 </r>
       <r>   -4.5926    1.0000 </r>
       <r>   -4.5872    1.0000 </r>
       <r>   -4.5520    1.0000 </r>
       <r>   -4.4900    1.0000 </r>
       <r>   -4.4694    1.0000 </r>
       <r>   -4.4286    1.0000 </r>
       <r>   -4.2659    1.0000 </r>
       <r>   -4.2508    1.0000 </r>
       <r>   -4.2295    1.0000 </r>
       <r>   -4.1348    1.0000 </r>
       <r>   -4.0425    1.0000 </r>
       <r>   -4.0273    1.0000 </r>
       <r>   -3.9904    1.0000 </r>
       <r>   -3.9441    1.0000 </r>
       <r>   -3.9009    1.0000 </r>
       <r>   -3.8334    1.0000 </r>
       <r>   -3.8201    1.0000 </r>
       <r>   -3.7954    1.0000 </r>
       <r>   -3.7921    1.0000 </r>
       <r>   -3.7629    1.0000 </r>
       <r>   -3.6986    1.0000 </r>
       <r>   -3.6617    1.0000 </r>
       <r>   -3.6166    1.0000 </r>
       <r>   -3.6021    1.0000 </r>
       <r>   -3.5708    1.0000 </r>
       <r>   -3.5520    1.0000 </r>
       <r>   -3.5289    1.0000 </r>
       <r>   -3.4846    1.0000 </r>
       <r>   -3.4570    1.0000 </r>
       <r>   -3.4255    1.0000 </r>
       <r>   -3.4211    1.0000 </r>
       <r>   -3.4017    1.0000 </r>
       <r>   -3.3580    1.0000 </r>
       <r>   -3.3522    1.0000 </r>
       <r>   -3.3035    1.0000 </r>
       <r>   -3.2499    1.0000 </r>
       <r>   -3.2274    1.0000 </r>
       <r>   -3.2219    1.0000 </r>
       <r>   -3.2051    1.0000 </r>
       <r>   -3.1454    1.0000 </r>
       <r>   -3.1169    1.0000 </r>
       <r>   -3.0791    1.0000 </r>
       <r>   -3.0692    1.0000 </r>
       <r>   -3.0467    1.0000 </r>
       <r>   -3.0187    1.0000 </r>
       <r>   -2.9719    1.0000 </r>
       <r>   -2.9120    1.0000 </r>
       <r>   -2.8790    1.0000 </r>
       <r>   -2.8461    1.0000 </r>
       <r>   -2.8048    1.0000 </r>
       <r>   -2.7945    1.0000 </r>
       <r>   -2.7877    1.0000 </r>
       <r>   -2.7069    1.0000 </r>
       <r>   -2.7039    1.0000 </r>
       <r>   -2.6875    1.0000 </r>
       <r>   -2.6665    1.0000 </r>
       <r>   -2.6344    1.0000 </r>
       <r>   -2.5957    1.0000 </r>
       <r>   -2.5161    1.0000 </r>
       <r>   -2.4951    1.0000 </r>
       <r>   -2.4853    1.0000 </r>
       <r>   -2.4584    1.0000 </r>
       <r>   -2.4341    1.0000 </r>
       <r>   -2.4247    1.0000 </r>
       <r>   -2.3966    1.0000 </r>
       <r>   -2.3496    1.0000 </r>
       <r>   -2.3420    1.0000 </r>
       <r>   -2.3293    1.0000 </r>
       <r>   -2.3059    1.0000 </r>
       <r>   -2.1507    1.0000 </r>
       <r>   -2.1139    1.0000 </r>
       <r>   -2.0083    1.0000 </r>
       <r>   -1.9352    1.0000 </r>
       <r>   -1.5306    1.0000 </r>
       <r>   -0.9518    0.9872 </r>
       <r>   -0.8226    0.6200 </r>
       <r>    0.0693   -0.0000 </r>
       <r>    0.6015   -0.0000 </r>
       <r>    0.7117   -0.0000 </r>
       <r>    0.8027   -0.0000 </r>
       <r>    1.1840   -0.0000 </r>
       <r>    1.5668   -0.0000 </r>
       <r>    1.9814   -0.0000 </r>
       <r>    2.1769   -0.0000 </r>
       <r>    2.7913   -0.0000 </r>
       <r>    3.2017   -0.0000 </r>
       <r>    3.9449   -0.0000 </r>
       <r>    4.1123   -0.0000 </r>
       <r>    4.3881   -0.0000 </r>
       <r>    4.5734   -0.0000 </r>
       <r>    4.9460    0.0000 </r>
       <r>    5.3229    0.0000 </r>
       <r>    5.4242    0.0000 </r>
       <r>    5.5620    0.0000 </r>
      </set>
      <set comment="kpoint 11">
       <r>  -24.2355    1.0000 </r>
       <r>  -10.9916    1.0000 </r>
       <r>   -8.2421    1.0000 </r>
       <r>   -7.8702    1.0000 </r>
       <r>   -7.5539    1.0000 </r>
       <r>   -7.4017    1.0000 </r>
       <r>   -6.7974    1.0000 </r>
       <r>   -6.6905    1.0000 </r>
       <r>   -5.8569    1.0000 </r>
       <r>   -5.3844    1.0000 </r>
       <r>   -5.1492    1.0000 </r>
       <r>   -5.1284    1.0000 </r>
       <r>   -4.9859    1.0000 </r>
       <r>   -4.9389    1.0000 </r>
       <r>   -4.9058    1.0000 </r>
       <r>   -4.8917    1.0000 </r>
       <r>   -4.6944    1.0000 </r>
       <r>   -4.6913    1.0000 </r>
       <r>   -4.6359    1.0000 </r>
       <r>   -4.4995    1.0000 </r>
       <r>   -4.4972    1.0000 </r>
       <r>   -4.4604    1.0000 </r>
       <r>   -4.3775    1.0000 </r>
       <r>   -4.3729    1.0000 </r>
       <r>   -4.2274    1.0000 </r>
       <r>   -4.2119    1.0000 </r>
       <r>   -4.1772    1.0000 </r>
       <r>   -4.1550    1.0000 </r>
       <r>   -4.1128    1.0000 </r>
       <r>   -4.0876    1.0000 </r>
       <r>   -3.9907    1.0000 </r>
       <r>   -3.9483    1.0000 </r>
       <r>   -3.9283    1.0000 </r>
       <r>   -3.8659    1.0000 </r>
       <r>   -3.8610    1.0000 </r>
       <r>   -3.8390    1.0000 </r>
       <r>   -3.8105    1.0000 </r>
       <r>   -3.7847    1.0000 </r>
       <r>   -3.7481    1.0000 </r>
       <r>   -3.7462    1.0000 </r>
       <r>   -3.6881    1.0000 </r>
       <r>   -3.6105    1.0000 </r>
       <r>   -3.6045    1.0000 </r>
       <r>   -3.5709    1.0000 </r>
       <r>   -3.5343    1.0000 </r>
       <r>   -3.4658    1.0000 </r>
       <r>   -3.4572    1.0000 </r>
       <r>   -3.4042    1.0000 </r>
       <r>   -3.3984    1.0000 </r>
       <r>   -3.3932    1.0000 </r>
       <r>   -3.3913    1.0000 </r>
       <r>   -3.3353    1.0000 </r>
       <r>   -3.3037    1.0000 </r>
       <r>   -3.2994    1.0000 </r>
       <r>   -3.2657    1.0000 </r>
       <r>   -3.2607    1.0000 </r>
       <r>   -3.2118    1.0000 </r>
       <r>   -3.1980    1.0000 </r>
       <r>   -3.1748    1.0000 </r>
       <r>   -3.1479    1.0000 </r>
       <r>   -3.1109    1.0000 </r>
       <r>   -3.0817    1.0000 </r>
       <r>   -3.0391    1.0000 </r>
       <r>   -2.9430    1.0000 </r>
       <r>   -2.9336    1.0000 </r>
       <r>   -2.9255    1.0000 </r>
       <r>   -2.8851    1.0000 </r>
       <r>   -2.8515    1.0000 </r>
       <r>   -2.8392    1.0000 </r>
       <r>   -2.8156    1.0000 </r>
       <r>   -2.7938    1.0000 </r>
       <r>   -2.7680    1.0000 </r>
       <r>   -2.7434    1.0000 </r>
       <r>   -2.7236    1.0000 </r>
       <r>   -2.7159    1.0000 </r>
       <r>   -2.6440    1.0000 </r>
       <r>   -2.6407    1.0000 </r>
       <r>   -2.6030    1.0000 </r>
       <r>   -2.5726    1.0000 </r>
       <r>   -2.5497    1.0000 </r>
       <r>   -2.5160    1.0000 </r>
       <r>   -2.4623    1.0000 </r>
       <r>   -2.3858    1.0000 </r>
       <r>   -2.3675    1.0000 </r>
       <r>   -2.3592    1.0000 </r>
       <r>   -2.3030    1.0000 </r>
       <r>   -2.2980    1.0000 </r>
       <r>   -2.2580    1.0000 </r>
       <r>   -2.2473    1.0000 </r>
       <r>   -1.8483    1.0000 </r>
       <r>   -1.3261    1.0005 </r>
       <r>   -1.0205    1.0340 </r>
       <r>   -0.8997    0.8855 </r>
       <r>   -0.6168   -0.0089 </r>
       <r>   -0.5027   -0.0296 </r>
       <r>    0.0046   -0.0000 </r>
       <r>    0.4121   -0.0000 </r>
       <r>    0.5575   -0.0000 </r>
       <r>    0.9908   -0.0000 </r>
       <r>    1.9137   -0.0000 </r>
       <r>    1.9372   -0.0000 </r>
       <r>    2.5371   -0.0000 </r>
       <r>    3.2201   -0.0000 </r>
       <r>    3.8084   -0.0000 </r>
       <r>    4.2562   -0.0000 </r>
       <r>    4.4307   -0.0000 </r>
       <r>    4.6532   -0.0000 </r>
       <r>    4.8435    0.0000 </r>
       <r>    5.0236    0.0000 </r>
       <r>    5.5775    0.0000 </r>
       <r>    5.6528    0.0000 </r>
       <r>    5.6823    0.0000 </r>
      </set>
      <set comment="kpoint 12">
       <r>  -24.2355    1.0000 </r>
       <r>  -10.9687    1.0000 </r>
       <r>   -8.0106    1.0000 </r>
       <r>   -7.6199    1.0000 </r>
       <r>   -7.4517    1.0000 </r>
       <r>   -7.2206    1.0000 </r>
       <r>   -7.1691    1.0000 </r>
       <r>   -6.2138    1.0000 </r>
       <r>   -6.1247    1.0000 </r>
       <r>   -6.0377    1.0000 </r>
       <r>   -5.3738    1.0000 </r>
       <r>   -5.0546    1.0000 </r>
       <r>   -4.9453    1.0000 </r>
       <r>   -4.7338    1.0000 </r>
       <r>   -4.6611    1.0000 </r>
       <r>   -4.6216    1.0000 </r>
       <r>   -4.6079    1.0000 </r>
       <r>   -4.5783    1.0000 </r>
       <r>   -4.5247    1.0000 </r>
       <r>   -4.4203    1.0000 </r>
       <r>   -4.3877    1.0000 </r>
       <r>   -4.3148    1.0000 </r>
       <r>   -4.3080    1.0000 </r>
       <r>   -4.3021    1.0000 </r>
       <r>   -4.2814    1.0000 </r>
       <r>   -4.2482    1.0000 </r>
       <r>   -4.2064    1.0000 </r>
       <r>   -4.1550    1.0000 </r>
       <r>   -4.1340    1.0000 </r>
       <r>   -4.1077    1.0000 </r>
       <r>   -4.0785    1.0000 </r>
       <r>   -4.0597    1.0000 </r>
       <r>   -4.0399    1.0000 </r>
       <r>   -3.9956    1.0000 </r>
       <r>   -3.8934    1.0000 </r>
       <r>   -3.8851    1.0000 </r>
       <r>   -3.8776    1.0000 </r>
       <r>   -3.8600    1.0000 </r>
       <r>   -3.8181    1.0000 </r>
       <r>   -3.7806    1.0000 </r>
       <r>   -3.7595    1.0000 </r>
       <r>   -3.7130    1.0000 </r>
       <r>   -3.6727    1.0000 </r>
       <r>   -3.6568    1.0000 </r>
       <r>   -3.6336    1.0000 </r>
       <r>   -3.6305    1.0000 </r>
       <r>   -3.5890    1.0000 </r>
       <r>   -3.5424    1.0000 </r>
       <r>   -3.5121    1.0000 </r>
       <r>   -3.4348    1.0000 </r>
       <r>   -3.4066    1.0000 </r>
       <r>   -3.3802    1.0000 </r>
       <r>   -3.3690    1.0000 </r>
       <r>   -3.3280    1.0000 </r>
       <r>   -3.3031    1.0000 </r>
       <r>   -3.2803    1.0000 </r>
       <r>   -3.2323    1.0000 </r>
       <r>   -3.1507    1.0000 </r>
       <r>   -3.1415    1.0000 </r>
       <r>   -3.0959    1.0000 </r>
       <r>   -3.0818    1.0000 </r>
       <r>   -3.0360    1.0000 </r>
       <r>   -3.0158    1.0000 </r>
       <r>   -2.9953    1.0000 </r>
       <r>   -2.9741    1.0000 </r>
       <r>   -2.9144    1.0000 </r>
       <r>   -2.8955    1.0000 </r>
       <r>   -2.8699    1.0000 </r>
       <r>   -2.8282    1.0000 </r>
       <r>   -2.8146    1.0000 </r>
       <r>   -2.7819    1.0000 </r>
       <r>   -2.7538    1.0000 </r>
       <r>   -2.7363    1.0000 </r>
       <r>   -2.7107    1.0000 </r>
       <r>   -2.6610    1.0000 </r>
       <r>   -2.6407    1.0000 </r>
       <r>   -2.6109    1.0000 </r>
       <r>   -2.5799    1.0000 </r>
       <r>   -2.5491    1.0000 </r>
       <r>   -2.5414    1.0000 </r>
       <r>   -2.5248    1.0000 </r>
       <r>   -2.4658    1.0000 </r>
       <r>   -2.4583    1.0000 </r>
       <r>   -2.4294    1.0000 </r>
       <r>   -2.4099    1.0000 </r>
       <r>   -2.3724    1.0000 </r>
       <r>   -2.3469    1.0000 </r>
       <r>   -2.3378    1.0000 </r>
       <r>   -2.1946    1.0000 </r>
       <r>   -2.0162    1.0000 </r>
       <r>   -1.8594    1.0000 </r>
       <r>   -1.7733    1.0000 </r>
       <r>   -1.1291    1.0196 </r>
       <r>   -0.6079   -0.0163 </r>
       <r>   -0.1825   -0.0001 </r>
       <r>    0.6226   -0.0000 </r>
       <r>    0.8716   -0.0000 </r>
       <r>    1.2376   -0.0000 </r>
       <r>    1.5281   -0.0000 </r>
       <r>    1.9345   -0.0000 </r>
[...]
        <r>  0.0000  0.0012  0.0000 </r>
       </set>
       <set comment="band 91">
        <r>  0.0118  0.0098  0.0721 </r>
        <r>  0.0118  0.0098  0.0721 </r>
        <r>  0.0007  0.0121  0.0844 </r>
        <r>  0.0227  0.0075  0.0699 </r>
        <r>  0.0095  0.0032  0.0359 </r>
        <r>  0.0007  0.0120  0.0307 </r>
        <r>  0.0041  0.0051  0.0473 </r>
        <r>  0.0041  0.0051  0.0473 </r>
        <r>  0.0044  0.0043  0.0330 </r>
        <r>  0.0044  0.0043  0.0330 </r>
        <r>  0.0022  0.0036  0.0336 </r>
        <r>  0.0000  0.0046  0.0175 </r>
        <r>  0.0126  0.0070  0.0337 </r>
        <r>  0.0126  0.0070  0.0337 </r>
        <r>  0.0128  0.0075  0.0390 </r>
        <r>  0.0018  0.0113  0.0243 </r>
        <r>  0.0003  0.0019  0.0004 </r>
        <r>  0.0000  0.0090  0.0000 </r>
       </set>
       <set comment="band 92">
        <r>  0.0110  0.0065  0.0325 </r>
        <r>  0.0110  0.0065  0.0325 </r>
        <r>  0.0160  0.0057  0.0218 </r>
        <r>  0.0141  0.0064  0.0239 </r>
        <r>  0.0001  0.0024  0.0637 </r>
        <r>  0.0001  0.0030  0.0830 </r>
        <r>  0.0062  0.0093  0.0299 </r>
        <r>  0.0062  0.0093  0.0299 </r>
        <r>  0.0024  0.0051  0.0417 </r>
        <r>  0.0024  0.0051  0.0417 </r>
        <r>  0.0099  0.0067  0.0744 </r>
        <r>  0.0110  0.0059  0.0331 </r>
        <r>  0.0089  0.0076  0.0172 </r>
        <r>  0.0089  0.0076  0.0171 </r>
        <r>  0.0120  0.0090  0.0823 </r>
        <r>  0.0231  0.0090  0.0122 </r>
        <r>  0.0000  0.0043  0.0008 </r>
        <r>  0.0000  0.0245  0.0000 </r>
       </set>
       <set comment="band 93">
        <r>  0.0194  0.0143  0.0272 </r>
        <r>  0.0194  0.0143  0.0272 </r>
        <r>  0.0322  0.0139  0.0283 </r>
        <r>  0.0024  0.0144  0.0320 </r>
        <r>  0.0149  0.0142  0.0259 </r>
        <r>  0.0053  0.0030  0.0435 </r>
        <r>  0.0009  0.0097  0.0286 </r>
        <r>  0.0009  0.0097  0.0286 </r>
        <r>  0.0093  0.0163  0.0314 </r>
        <r>  0.0093  0.0163  0.0314 </r>
        <r>  0.0095  0.0095  0.0254 </r>
        <r>  0.0077  0.0156  0.0598 </r>
        <r>  0.0119  0.0116  0.0296 </r>
        <r>  0.0119  0.0116  0.0296 </r>
        <r>  0.0107  0.0067  0.0317 </r>
        <r>  0.0001  0.0110  0.0464 </r>
        <r>  0.0078  0.0102  0.0007 </r>
        <r>  0.0002  0.0145  0.0000 </r>
       </set>
       <set comment="band 94">
        <r>  0.0187  0.0143  0.0175 </r>
        <r>  0.0187  0.0143  0.0175 </r>
        <r>  0.0009  0.0095  0.0245 </r>
        <r>  0.0172  0.0125  0.0185 </r>
        <r>  0.0078  0.0064  0.0228 </r>
        <r>  0.0365  0.0059  0.0292 </r>
        <r>  0.0022  0.0119  0.0127 </r>
        <r>  0.0022  0.0119  0.0127 </r>
        <r>  0.0033  0.0169  0.0224 </r>
        <r>  0.0033  0.0169  0.0224 </r>
        <r>  0.0001  0.0167  0.0334 </r>
        <r>  0.0131  0.0037  0.0407 </r>
        <r>  0.0196  0.0219  0.0329 </r>
        <r>  0.0196  0.0219  0.0329 </r>
        <r>  0.0010  0.0227  0.0352 </r>
        <r>  0.0106  0.0155  0.0347 </r>
        <r>  0.0077  0.0236  0.0017 </r>
        <r>  0.0004  0.0383  0.0002 </r>
       </set>
       <set comment="band 95">
        <r>  0.0047  0.0096  0.0228 </r>
        <r>  0.0047  0.0096  0.0228 </r>
        <r>  0.0101  0.0170  0.0157 </r>
        <r>  0.0219  0.0208  0.0168 </r>
        <r>  0.0000  0.0127  0.0031 </r>
        <r>  0.0011  0.0127  0.0022 </r>
        <r>  0.0334  0.0021  0.0255 </r>
        <r>  0.0334  0.0021  0.0255 </r>
        <r>  0.0077  0.0110  0.0237 </r>
        <r>  0.0077  0.0110  0.0237 </r>
        <r>  0.0104  0.0073  0.0218 </r>
        <r>  0.0193  0.0191  0.0101 </r>
        <r>  0.0030  0.0126  0.0325 </r>
        <r>  0.0030  0.0127  0.0325 </r>
        <r>  0.0005  0.0228  0.0155 </r>
        <r>  0.0069  0.0540  0.0047 </r>
        <r>  0.0003  0.0406  0.0021 </r>
        <r>  0.0000  0.0691  0.0006 </r>
       </set>
       <set comment="band 96">
        <r>  0.0069  0.0147  0.0103 </r>
        <r>  0.0069  0.0146  0.0103 </r>
        <r>  0.0160  0.0162  0.0107 </r>
        <r>  0.0065  0.0062  0.0127 </r>
        <r>  0.0089  0.0168  0.0115 </r>
        <r>  0.0061  0.0180  0.0072 </r>
        <r>  0.0171  0.0073  0.0109 </r>
        <r>  0.0171  0.0073  0.0109 </r>
        <r>  0.0008  0.0148  0.0193 </r>
        <r>  0.0008  0.0148  0.0193 </r>
        <r>  0.0165  0.0132  0.0151 </r>
        <r>  0.0082  0.0139  0.0173 </r>
        <r>  0.0072  0.0377  0.0314 </r>
        <r>  0.0072  0.0377  0.0314 </r>
        <r>  0.0065  0.0123  0.0220 </r>
        <r>  0.0141  0.0106  0.0285 </r>
        <r>  0.0019  0.0778  0.0025 </r>
        <r>  0.0002  0.0794  0.0013 </r>
       </set>
       <set comment="band 97">
        <r>  0.0100  0.0155  0.0137 </r>
        <r>  0.0100  0.0155  0.0137 </r>
        <r>  0.0003  0.0205  0.0146 </r>
        <r>  0.0017  0.0084  0.0127 </r>
        <r>  0.0496  0.0113  0.0160 </r>
        <r>  0.0015  0.0146  0.0305 </r>
        <r>  0.0018  0.0266  0.0196 </r>
        <r>  0.0018  0.0266  0.0196 </r>
        <r>  0.0264  0.0162  0.0321 </r>
        <r>  0.0264  0.0162  0.0321 </r>
        <r>  0.0169  0.0386  0.0168 </r>
        <r>  0.0002  0.0289  0.0338 </r>
        <r>  0.0176  0.0258  0.0219 </r>
        <r>  0.0176  0.0258  0.0219 </r>
        <r>  0.0177  0.0281  0.0178 </r>
        <r>  0.0007  0.0141  0.0287 </r>
        <r>  0.0044  0.0033  0.0001 </r>
        <r>  0.0000  0.0007  0.0000 </r>
       </set>
       <set comment="band 98">
        <r>  0.0089  0.0376  0.0193 </r>
        <r>  0.0089  0.0376  0.0193 </r>
        <r>  0.0148  0.0139  0.0252 </r>
        <r>  0.0062  0.0183  0.0309 </r>
        <r>  0.0007  0.0408  0.0384 </r>
        <r>  0.0298  0.0556  0.0209 </r>
        <r>  0.0154  0.0288  0.0346 </r>
        <r>  0.0154  0.0288  0.0346 </r>
        <r>  0.0083  0.0189  0.0143 </r>
        <r>  0.0083  0.0189  0.0143 </r>
        <r>  0.0001  0.0090  0.0156 </r>
        <r>  0.0145  0.0183  0.0146 </r>
        <r>  0.0094  0.0111  0.0130 </r>
        <r>  0.0094  0.0111  0.0130 </r>
        <r>  0.0033  0.0102  0.0050 </r>
        <r>  0.0013  0.0085  0.0083 </r>
        <r>  0.0050  0.0211  0.0005 </r>
        <r>  0.0001  0.0135  0.0003 </r>
       </set>
       <set comment="band 99">
        <r>  0.0009  0.0098  0.0180 </r>
        <r>  0.0009  0.0098  0.0180 </r>
        <r>  0.0019  0.0344  0.0097 </r>
        <r>  0.0028  0.0421  0.0088 </r>
        <r>  0.0002  0.0025  0.0172 </r>
        <r>  0.0001  0.0024  0.0207 </r>
        <r>  0.0060  0.0337  0.0063 </r>
        <r>  0.0060  0.0337  0.0063 </r>
        <r>  0.0040  0.0083  0.0088 </r>
        <r>  0.0040  0.0083  0.0087 </r>
        <r>  0.0101  0.0132  0.0090 </r>
        <r>  0.0041  0.0203  0.0128 </r>
        <r>  0.0041  0.0137  0.0149 </r>
        <r>  0.0041  0.0137  0.0150 </r>
        <r>  0.0416  0.0002  0.0017 </r>
        <r>  0.0000  0.0375  0.0321 </r>
        <r>  0.0004  0.1077  0.0017 </r>
        <r>  0.0000  0.0714  0.0021 </r>
       </set>
       <set comment="band 100">
        <r>  0.0031  0.0497  0.0147 </r>
        <r>  0.0031  0.0497  0.0147 </r>
        <r>  0.0073  0.0133  0.0300 </r>
        <r>  0.0130  0.0237  0.0220 </r>
        <r>  0.0012  0.0540  0.0132 </r>
        <r>  0.0006  0.0267  0.0071 </r>
        <r>  0.0055  0.0098  0.0193 </r>
        <r>  0.0055  0.0098  0.0193 </r>
        <r>  0.0101  0.0219  0.0162 </r>
        <r>  0.0101  0.0219  0.0162 </r>
        <r>  0.0001  0.0384  0.0160 </r>
        <r>  0.0009  0.0214  0.0149 </r>
        <r>  0.0026  0.0435  0.0124 </r>
        <r>  0.0026  0.0435  0.0124 </r>
        <r>  0.0086  0.0133  0.0250 </r>
        <r>  0.0222  0.0120  0.0225 </r>
        <r>  0.0030  0.0015  0.0008 </r>
        <r>  0.0008  0.0025  0.0000 </r>
       </set>
       <set comment="band 101">
        <r>  0.0118  0.0197  0.0229 </r>
        <r>  0.0118  0.0197  0.0229 </r>
        <r>  0.0004  0.0318  0.0124 </r>
        <r>  0.0002  0.0508  0.0112 </r>
        <r>  0.0050  0.0115  0.0056 </r>
        <r>  0.0047  0.0410  0.0062 </r>
        <r>  0.0037  0.0105  0.0155 </r>
        <r>  0.0037  0.0105  0.0156 </r>
        <r>  0.0027  0.0526  0.0067 </r>
        <r>  0.0027  0.0526  0.0067 </r>
        <r>  0.0127  0.0036  0.0261 </r>
        <r>  0.0122  0.0057  0.0208 </r>
        <r>  0.0020  0.0199  0.0172 </r>
        <r>  0.0020  0.0199  0.0173 </r>
        <r>  0.0105  0.0403  0.0071 </r>
        <r>  0.0086  0.0138  0.0117 </r>
        <r>  0.0008  0.0649  0.0007 </r>
        <r>  0.0001  0.0283  0.0014 </r>
       </set>
       <set comment="band 102">
        <r>  0.0004  0.0159  0.0082 </r>
        <r>  0.0004  0.0159  0.0082 </r>
        <r>  0.0014  0.0183  0.0075 </r>
        <r>  0.0001  0.0306  0.0078 </r>
        <r>  0.0000  0.0054  0.0102 </r>
        <r>  0.0000  0.0028  0.0117 </r>
        <r>  0.0014  0.0282  0.0038 </r>
        <r>  0.0014  0.0281  0.0038 </r>
        <r>  0.0013  0.0154  0.0134 </r>
        <r>  0.0013  0.0154  0.0134 </r>
        <r>  0.0063  0.0421  0.0052 </r>
        <r>  0.0000  0.0193  0.0102 </r>
        <r>  0.0035  0.0280  0.0248 </r>
        <r>  0.0035  0.0281  0.0249 </r>
        <r>  0.0255  0.0420  0.0122 </r>
        <r>  0.0026  0.0516  0.0260 </r>
        <r>  0.0000  0.0689  0.0005 </r>
        <r>  0.0000  0.0114  0.0016 </r>
       </set>
       <set comment="band 103">
        <r>  0.0001  0.0318  0.0149 </r>
        <r>  0.0001  0.0319  0.0150 </r>
        <r>  0.0016  0.0641  0.0126 </r>
        <r>  0.0042  0.0175  0.0202 </r>
        <r>  0.0007  0.0139  0.0162 </r>
        <r>  0.0008  0.0107  0.0252 </r>
        <r>  0.0035  0.0371  0.0059 </r>
        <r>  0.0034  0.0372  0.0059 </r>
        <r>  0.0088  0.0256  0.0111 </r>
        <r>  0.0088  0.0255  0.0111 </r>
        <r>  0.0000  0.0258  0.0162 </r>
        <r>  0.0000  0.0153  0.0160 </r>
        <r>  0.0070  0.0109  0.0193 </r>
        <r>  0.0070  0.0109  0.0193 </r>
        <r>  0.0003  0.0800  0.0052 </r>
        <r>  0.0066  0.0276  0.0156 </r>
        <r>  0.0071  0.0206  0.0001 </r>
        <r>  0.0001  0.0055  0.0004 </r>
       </set>
       <set comment="band 104">
        <r>  0.0003  0.0356  0.0155 </r>
        <r>  0.0003  0.0356  0.0155 </r>
        <r>  0.0004  0.0267  0.0163 </r>
        <r>  0.0009  0.0213  0.0134 </r>
        <r>  0.0182  0.0443  0.0193 </r>
        <r>  0.0301  0.0323  0.0149 </r>
        <r>  0.0213  0.0349  0.0214 </r>
        <r>  0.0213  0.0349  0.0214 </r>
        <r>  0.0045  0.0353  0.0210 </r>
        <r>  0.0045  0.0353  0.0210 </r>
        <r>  0.0098  0.0326  0.0240 </r>
        <r>  0.0038  0.0483  0.0213 </r>
        <r>  0.0025  0.0142  0.0131 </r>
        <r>  0.0025  0.0142  0.0131 </r>
        <r>  0.0003  0.0129  0.0112 </r>
        <r>  0.0002  0.0138  0.0072 </r>
        <r>  0.0027  0.0020  0.0003 </r>
        <r>  0.0001  0.0009  0.0000 </r>
       </set>
       <set comment="band 105">
        <r>  0.0162  0.0162  0.0138 </r>
        <r>  0.0162  0.0162  0.0138 </r>
        <r>  0.0179  0.0118  0.0118 </r>
        <r>  0.0157  0.0125  0.0135 </r>
        <r>  0.0002  0.0566  0.0397 </r>
        <r>  0.0003  0.0633  0.0404 </r>
        <r>  0.0003  0.0706  0.0348 </r>
        <r>  0.0003  0.0706  0.0348 </r>
        <r>  0.0203  0.0380  0.0179 </r>
        <r>  0.0203  0.0380  0.0180 </r>
        <r>  0.0158  0.0307  0.0225 </r>
        <r>  0.0213  0.0271  0.0187 </r>
        <r>  0.0074  0.0062  0.0041 </r>
        <r>  0.0074  0.0062  0.0041 </r>
        <r>  0.0047  0.0032  0.0028 </r>
        <r>  0.0070  0.0033  0.0014 </r>
        <r>  0.0000  0.0044  0.0000 </r>
        <r>  0.0000  0.0012  0.0001 </r>
       </set>
       <set comment="band 106">
        <r>  0.0022  0.0206  0.0064 </r>
        <r>  0.0022  0.0206  0.0064 </r>
        <r>  0.0005  0.0153  0.0064 </r>
        <r>  0.0009  0.0175  0.0052 </r>
        <r>  0.0149  0.0263  0.0090 </r>
        <r>  0.0001  0.0120  0.0099 </r>
        <r>  0.0049  0.0176  0.0084 </r>
        <r>  0.0049  0.0176  0.0084 </r>
        <r>  0.0165  0.0216  0.0171 </r>
        <r>  0.0165  0.0215  0.0171 </r>
        <r>  0.0038  0.0223  0.0235 </r>
        <r>  0.0385  0.0213  0.0129 </r>
        <r>  0.0103  0.0256  0.0403 </r>
        <r>  0.0104  0.0256  0.0403 </r>
        <r>  0.0118  0.0644  0.0176 </r>
        <r>  0.0275  0.0115  0.0204 </r>
        <r>  0.0101  0.0412  0.0000 </r>
        <r>  0.0000  0.0101  0.0011 </r>
       </set>
       <set comment="band 107">
        <r>  0.0058  0.0159  0.0076 </r>
        <r>  0.0059  0.0158  0.0075 </r>
        <r>  0.0080  0.0184  0.0130 </r>
        <r>  0.0104  0.0217  0.0121 </r>
        <r>  0.0239  0.0254  0.0027 </r>
        <r>  0.0285  0.0261  0.0015 </r>
        <r>  0.0140  0.0063  0.0203 </r>
        <r>  0.0142  0.0062  0.0202 </r>
        <r>  0.0021  0.0076  0.0255 </r>
        <r>  0.0021  0.0077  0.0255 </r>
        <r>  0.0000  0.0293  0.0054 </r>
        <r>  0.0003  0.0304  0.0044 </r>
        <r>  0.0021  0.0254  0.0202 </r>
        <r>  0.0020  0.0252  0.0202 </r>
        <r>  0.0000  0.0477  0.0195 </r>
        <r>  0.0021  0.0523  0.0234 </r>
        <r>  0.0016  0.0357  0.0004 </r>
        <r>  0.0003  0.0031  0.0010 </r>
       </set>
       <set comment="band 108">
        <r>  0.0125  0.0256  0.0128 </r>
        <r>  0.0125  0.0256  0.0128 </r>
        <r>  0.0067  0.0294  0.0084 </r>
        <r>  0.0073  0.0144  0.0090 </r>
        <r>  0.0004  0.0190  0.0175 </r>
        <r>  0.0171  0.0113  0.0194 </r>
        <r>  0.0049  0.0178  0.0143 </r>
        <r>  0.0049  0.0178  0.0143 </r>
        <r>  0.0031  0.0249  0.0168 </r>
        <r>  0.0031  0.0249  0.0168 </r>
        <r>  0.0035  0.0161  0.0251 </r>
        <r>  0.0108  0.0271  0.0152 </r>
        <r>  0.0185  0.0164  0.0133 </r>
        <r>  0.0185  0.0164  0.0133 </r>
        <r>  0.0090  0.0301  0.0061 </r>
        <r>  0.0047  0.0204  0.0058 </r>
        <r>  0.0027  0.0064  0.0007 </r>
        <r>  0.0014  0.0043  0.0002 </r>
       </set>
       <set comment="band 109">
        <r>  0.0015  0.0147  0.0094 </r>
        <r>  0.0016  0.0148  0.0094 </r>
        <r>  0.0063  0.0098  0.0132 </r>
        <r>  0.0064  0.0246  0.0127 </r>
        <r>  0.0172  0.0078  0.0052 </r>
        <r>  0.0009  0.0022  0.0139 </r>
        <r>  0.0078  0.0042  0.0051 </r>
        <r>  0.0077  0.0042  0.0051 </r>
        <r>  0.0148  0.0021  0.0112 </r>
        <r>  0.0147  0.0021  0.0112 </r>
        <r>  0.0070  0.0114  0.0036 </r>
        <r>  0.0109  0.0094  0.0030 </r>
        <r>  0.0038  0.0130  0.0123 </r>
        <r>  0.0038  0.0131  0.0123 </r>
        <r>  0.0007  0.0143  0.0125 </r>
        <r>  0.0126  0.0179  0.0133 </r>
        <r>  0.0008  0.0060  0.0014 </r>
        <r>  0.0037  0.0050  0.0002 </r>
       </set>
       <set comment="band 110">
        <r>  0.0029  0.0126  0.0084 </r>
        <r>  0.0029  0.0127  0.0084 </r>
        <r>  0.0062  0.0061  0.0079 </r>
        <r>  0.0018  0.0204  0.0099 </r>
        <r>  0.0036  0.0020  0.0025 </r>
        <r>  0.0009  0.0094  0.0036 </r>
        <r>  0.0087  0.0022  0.0090 </r>
        <r>  0.0087  0.0022  0.0091 </r>
        <r>  0.0051  0.0076  0.0044 </r>
        <r>  0.0051  0.0076  0.0043 </r>
        <r>  0.0192  0.0027  0.0050 </r>
        <r>  0.0001  0.0177  0.0094 </r>
        <r>  0.0036  0.0077  0.0089 </r>
        <r>  0.0037  0.0077  0.0089 </r>
        <r>  0.0053  0.0121  0.0047 </r>
        <r>  0.0003  0.0089  0.0094 </r>
        <r>  0.0000  0.0123  0.0002 </r>
        <r>  0.0003  0.0035  0.0006 </r>
       </set>
       <set comment="band 111">
        <r>  0.0281  0.0312  0.0251 </r>
        <r>  0.0282  0.0310  0.0252 </r>
        <r>  0.0166  0.0389  0.0205 </r>
        <r>  0.0239  0.0394  0.0200 </r>
        <r>  0.0026  0.0116  0.0162 </r>
        <r>  0.0020  0.0382  0.0129 </r>
        <r>  0.0073  0.0081  0.0073 </r>
        <r>  0.0073  0.0084  0.0073 </r>
        <r>  0.0008  0.0221  0.0129 </r>
        <r>  0.0008  0.0224  0.0129 </r>
        <r>  0.0058  0.0174  0.0081 </r>
        <r>  0.0027  0.0320  0.0075 </r>
        <r>  0.0089  0.0046  0.0065 </r>
        <r>  0.0087  0.0046  0.0064 </r>
        <r>  0.0011  0.0029  0.0105 </r>
        <r>  0.0016  0.0038  0.0063 </r>
        <r>  0.0085  0.0065  0.0000 </r>
        <r>  0.0000  0.0015  0.0001 </r>
       </set>
       <set comment="band 112">
        <r>  0.0037  0.0067  0.0038 </r>
        <r>  0.0033  0.0069  0.0037 </r>
        <r>  0.0037  0.0111  0.0031 </r>
        <r>  0.0017  0.0060  0.0027 </r>
        <r>  0.0004  0.0154  0.0023 </r>
        <r>  0.0016  0.0024  0.0031 </r>
        <r>  0.0004  0.0031  0.0021 </r>
        <r>  0.0006  0.0020  0.0024 </r>
        <r>  0.0030  0.0072  0.0049 </r>
        <r>  0.0032  0.0064  0.0049 </r>
        <r>  0.0000  0.0092  0.0015 </r>
        <r>  0.0010  0.0007  0.0023 </r>
        <r>  0.0023  0.0034  0.0047 </r>
        <r>  0.0031  0.0037  0.0047 </r>
        <r>  0.0030  0.0022  0.0058 </r>
        <r>  0.0021  0.0037  0.0039 </r>
        <r>  0.0003  0.0024  0.0012 </r>
        <r>  0.0092  0.0067  0.0001 </r>
       </set>
      </set>
     </set>
    </set>
   </array>
  </projected>
 </calculation>
 <structure name="finalpos" >
  <crystal>
   <varray name="basis" >
    <v>       5.19996363       0.00000000       0.00000000 </v>
    <v>       2.59998182       4.50330060       0.00000000 </v>
    <v>       0.00000000       0.00000000      26.36862879 </v>
   </varray>
   <i name="volume">    617.47416323 </i>
   <varray name="rec_basis" >
    <v>       0.19230904      -0.11102967       0.00000000 </v>
    <v>       0.00000000       0.22205935       0.00000000 </v>
    <v>       0.00000000       0.00000000       0.03792385 </v>
   </varray>
  </crystal>
  <varray name="positions" >
   <v>       0.00000000       0.00000000       0.37923853 </v>
   <v>       0.50000000       0.00000000       0.37923853 </v>
   <v>       0.00000000       0.50000000       0.37923853 </v>
   <v>       0.50000000       0.50000000       0.37923853 </v>
   <v>       0.16666667       0.16666667       0.45974618 </v>
   <v>       0.66666667       0.16666667       0.45974618 </v>
   <v>       0.16666667       0.66666667       0.45974618 </v>
   <v>       0.66666667       0.66666667       0.45974618 </v>
   <v>       0.83277804       0.33277803       0.53854701 </v>
   <v>       0.33444131       0.33277743       0.53854739 </v>
   <v>       0.83277744       0.83444128       0.53854739 </v>
   <v>       0.33333220       0.83333219       0.54204227 </v>
   <v>       0.00017327       0.99991780       0.62149597 </v>
   <v>       0.49991748       0.99991750       0.62149860 </v>
   <v>       0.99999537       0.49999532       0.61652101 </v>
   <v>       0.49991781       0.50017323       0.62149598 </v>
   <v>       0.66667050       0.16667048       0.67560667 </v>
   <v>       0.66669502       0.16669499       0.72065716 </v>
  </varray>
  <varray name="selective"  type="logical" >
   <v type="logical" >  F  F  F </v>
   <v type="logical" >  F  F  F </v>
   <v type="logical" >  F  F  F </v>
   <v type="logical" >  F  F  F </v>
   <v type="logical" >  F  F  F </v>
   <v type="logical" >  F  F  F </v>
   <v type="logical" >  F  F  F </v>
   <v type="logical" >  F  F  F </v>
   <v type="logical" >  T  T  T </v>
   <v type="logical" >  T  T  T </v>
   <v type="logical" >  T  T  T </v>
   <v type="logical" >  T  T  T </v>
   <v type="logical" >  T  T  T </v>
   <v type="logical" >  T  T  T </v>
   <v type="logical" >  T  T  T </v>
   <v type="logical" >  T  T  T </v>
   <v type="logical" >  T  T  T </v>
   <v type="logical" >  T  T  T </v>
  </varray>
  <nose>
   <v>      -3.00000000       0.00000000       0.00010000       0.00010000 </v>
  </nose>
 </structure>
</modeling>
