unknown system                          
           1
     5.199964    0.000000    0.000000
     2.599982    4.503301    0.000000
     0.000000    0.000000   26.368629
   Cu   C    O 
  16   1   1
Direct configuration=     1
   0.00000000  0.00000000  0.37923853
   0.50000000  0.00000000  0.37923853
   0.00000000  0.50000000  0.37923853
   0.50000000  0.50000000  0.37923853
   0.16666667  0.16666667  0.45974618
   0.66666667  0.16666667  0.45974618
   0.16666667  0.66666667  0.45974618
   0.66666667  0.66666667  0.45974618
   0.83277804  0.33277803  0.53854701
   0.33444131  0.33277743  0.53854739
   0.83277744  0.83444128  0.53854739
   0.33333220  0.83333219  0.54204227
   0.00017327  0.99991780  0.62149597
   0.49991748  0.99991750  0.62149860
   0.99999537  0.49999532  0.61652101
   0.49991781  0.50017323  0.62149598
   0.66667050  0.16667048  0.67560667
   0.66669502  0.16669499  0.72065716
